LAMMPS data file generated by ipp-crystal-generator

216 atoms
4 atom types
216 bonds
2 bond types
432 angles
3 angle types
648 dihedrals
3 dihedral types

0.00 6.63 xlo xhi
0.00 20.78 ylo yhi
0.00 12.82 zlo zhi
0.00 -2.15 0.00 xy xz yz

Masses

1 12.0112
2 12.0112
3 12.0112
4 1.00797

Atoms # full

1 1 3 -0.1590 -0.6970 4.7607 1.2847
2 1 1 -0.0530 -0.8063 3.3082 1.7873
3 1 2 -0.1060 -1.2238 3.3290 3.2683
4 1 3 -0.1590 -2.5768 1.2239 3.1676
5 1 1 -0.0530 -1.4096 1.9284 3.8831
6 1 2 -0.1060 -1.5963 1.7746 5.4031
7 1 3 -0.1590 0.8464 1.6562 5.9365
8 1 1 -0.0530 -0.4657 2.4022 6.2378
9 1 2 -0.1060 -0.6188 2.5372 7.7629
10 1 3 -0.1590 -1.7698 4.7607 7.6956
11 1 1 -0.0530 -1.8791 3.3082 8.1982
12 1 2 -0.1060 -2.2967 3.3290 9.6791
13 1 3 -0.1590 -3.6496 1.2239 9.5785
14 1 1 -0.0530 -2.4824 1.9284 10.2939
15 1 2 -0.1060 -2.6691 1.7746 11.8139
16 1 3 -0.1590 -0.2264 1.6562 12.3473
17 1 1 -0.0530 -1.5385 2.4022 12.6486
18 1 2 -0.1060 -1.6916 2.5372 14.1738
19 2 3 -0.1590 -1.2334 -4.7607 4.4902
20 2 1 -0.0530 -1.3427 -3.3082 4.9928
21 2 2 -0.1060 -1.7602 -3.3290 6.4737
22 2 3 -0.1590 -3.1132 -1.2239 6.3730
23 2 1 -0.0530 -1.9460 -1.9284 7.0885
24 2 2 -0.1060 -2.1327 -1.7746 8.6085
25 2 3 -0.1590 0.3100 -1.6562 9.1419
26 2 1 -0.0530 -1.0021 -2.4022 9.4432
27 2 2 -0.1060 -1.1552 -2.5372 10.9683
28 2 3 -0.1590 -2.3062 -4.7607 10.9010
29 2 1 -0.0530 -2.4155 -3.3082 11.4036
30 2 2 -0.1060 -2.8331 -3.3290 12.8845
31 2 3 -0.1590 -4.1860 -1.2239 12.7839
32 2 1 -0.0530 -3.0188 -1.9284 13.4993
33 2 2 -0.1060 -3.2055 -1.7746 15.0194
34 2 3 -0.1590 -0.7628 -1.6562 15.5527
35 2 1 -0.0530 -2.0749 -2.4022 15.8540
36 2 2 -0.1060 -2.2280 -2.5372 17.3792
37 3 3 -0.1590 -4.5484 5.6293 4.4902
38 3 1 -0.0530 -4.6577 7.0818 4.9928
39 3 2 -0.1060 -5.0752 7.0610 6.4737
40 3 3 -0.1590 -6.4282 9.1661 6.3730
41 3 1 -0.0530 -5.2610 8.4616 7.0885
42 3 2 -0.1060 -5.4477 8.6154 8.6085
43 3 3 -0.1590 -3.0050 8.7338 9.1419
44 3 1 -0.0530 -4.3171 7.9878 9.4432
45 3 2 -0.1060 -4.4702 7.8528 10.9683
46 3 3 -0.1590 -5.6212 5.6293 10.9010
47 3 1 -0.0530 -5.7305 7.0818 11.4036
48 3 2 -0.1060 -6.1481 7.0610 12.8845
49 3 3 -0.1590 -7.5010 9.1661 12.7839
50 3 1 -0.0530 -6.3338 8.4616 13.4993
51 3 2 -0.1060 -6.5205 8.6154 15.0194
52 3 3 -0.1590 -4.0778 8.7338 15.5527
53 3 1 -0.0530 -5.3899 7.9878 15.8540
54 3 2 -0.1060 -5.5430 7.8528 17.3792
55 4 3 -0.1590 -4.0120 -5.6293 1.2847
56 4 1 -0.0530 -4.1213 -7.0818 1.7873
57 4 2 -0.1060 -4.5388 -7.0610 3.2683
58 4 3 -0.1590 -5.8918 -9.1661 3.1676
59 4 1 -0.0530 -4.7246 -8.4616 3.8831
60 4 2 -0.1060 -4.9113 -8.6154 5.4031
61 4 3 -0.1590 -2.4686 -8.7338 5.9365
62 4 1 -0.0530 -3.7807 -7.9878 6.2378
63 4 2 -0.1060 -3.9338 -7.8528 7.7629
64 4 3 -0.1590 -5.0848 -5.6293 7.6956
65 4 1 -0.0530 -5.1941 -7.0818 8.1982
66 4 2 -0.1060 -5.6117 -7.0610 9.6791
67 4 3 -0.1590 -6.9646 -9.1661 9.5785
68 4 1 -0.0530 -5.7974 -8.4616 10.2939
69 4 2 -0.1060 -5.9841 -8.6154 11.8139
70 4 3 -0.1590 -3.5414 -8.7338 12.3473
71 4 1 -0.0530 -4.8535 -7.9878 12.6486
72 4 2 -0.1060 -5.0066 -7.8528 14.1738
73 1 4 0.0530 -1.6960 5.1133 0.9886
74 1 4 0.0530 -0.3015 5.3911 2.0948
75 1 4 0.0530 -0.0173 4.7904 0.4204
76 1 4 0.0530 -1.6460 2.8569 1.2385
77 1 4 0.0530 -0.4655 3.8767 3.8469
78 1 4 0.0530 -2.1637 3.8917 3.3678
79 1 4 0.0530 -3.3497 1.9681 2.9252
80 1 4 0.0530 -2.2020 0.7580 2.2443
81 1 4 0.0530 -2.9931 0.4542 3.8340
82 1 4 0.0530 -0.5043 1.3588 3.6263
83 1 4 0.0530 -2.5531 2.2326 5.6945
84 1 4 0.0530 -1.6711 0.7049 5.6483
85 1 4 0.0530 0.6253 0.5892 5.7857
86 1 4 0.0530 1.2973 2.0781 5.0261
87 1 4 0.0530 1.5325 1.7805 6.7872
88 1 4 0.0530 -0.3320 3.4237 5.8523
89 1 4 0.0530 -0.6407 1.5329 8.2110
90 1 4 0.0530 0.2691 3.0442 8.1685
91 1 4 0.0530 -0.7200 5.0832 7.7581
92 1 4 0.0530 -2.1144 4.8054 6.6519
93 1 4 0.0530 -2.3987 5.4062 8.3263
94 1 4 0.0530 -2.7188 2.8569 7.6494
95 1 4 0.0530 -1.5383 3.8767 10.2577
96 1 4 0.0530 -3.2366 3.8917 9.7787
97 1 4 0.0530 -4.4225 1.9681 9.3360
98 1 4 0.0530 -3.2748 0.7580 8.6552
99 1 4 0.0530 -4.0659 0.4542 10.2449
100 1 4 0.0530 -1.5771 1.3588 10.0372
101 1 4 0.0530 -3.6259 2.2326 12.1053
102 1 4 0.0530 -2.7439 0.7049 12.0591
103 1 4 0.0530 -0.4476 0.5892 12.1965
104 1 4 0.0530 0.2245 2.0781 11.4370
105 1 4 0.0530 0.4597 1.7805 13.1981
106 1 4 0.0530 -1.4048 3.4237 12.2631
107 1 4 0.0530 -0.8037 3.0442 14.5794
108 1 4 0.0530 -1.7135 1.5329 14.6219
109 2 4 0.0530 -0.8379 -5.3911 5.3002
110 2 4 0.0530 -2.2324 -5.1133 4.1940
111 2 4 0.0530 -0.5537 -4.7904 3.6258
112 2 4 0.0530 -2.1824 -2.8569 4.4440
113 2 4 0.0530 -2.7001 -3.8917 6.5733
114 2 4 0.0530 -1.0019 -3.8767 7.0523
115 2 4 0.0530 -2.7384 -0.7580 5.4498
116 2 4 0.0530 -3.8861 -1.9681 6.1306
117 2 4 0.0530 -3.5295 -0.4542 7.0395
118 2 4 0.0530 -1.0407 -1.3588 6.8317
119 2 4 0.0530 -2.2075 -0.7049 8.8537
120 2 4 0.0530 -3.0895 -2.2326 8.8999
121 2 4 0.0530 0.7609 -2.0781 8.2316
122 2 4 0.0530 0.0889 -0.5892 8.9911
123 2 4 0.0530 0.9961 -1.7805 9.9926
124 2 4 0.0530 -0.8684 -3.4237 9.0577
125 2 4 0.0530 -0.2673 -3.0442 11.3739
126 2 4 0.0530 -1.1771 -1.5329 11.4164
127 2 4 0.0530 -2.6509 -4.8054 9.8574
128 2 4 0.0530 -1.2564 -5.0832 10.9635
129 2 4 0.0530 -2.9351 -5.4062 11.5317
130 2 4 0.0530 -3.2552 -2.8569 10.8548
131 2 4 0.0530 -3.7730 -3.8917 12.9841
132 2 4 0.0530 -2.0747 -3.8767 13.4632
133 2 4 0.0530 -3.8112 -0.7580 11.8606
134 2 4 0.0530 -4.9589 -1.9681 12.5415
135 2 4 0.0530 -4.6023 -0.4542 13.4503
136 2 4 0.0530 -2.1135 -1.3588 13.2426
137 2 4 0.0530 -3.2803 -0.7049 15.2645
138 2 4 0.0530 -4.1623 -2.2326 15.3107
139 2 4 0.0530 -0.3119 -2.0781 14.6424
140 2 4 0.0530 -0.9840 -0.5892 15.4020
141 2 4 0.0530 -0.0767 -1.7805 16.4035
142 2 4 0.0530 -1.9412 -3.4237 15.4685
143 2 4 0.0530 -2.2500 -1.5329 17.8273
144 2 4 0.0530 -1.3401 -3.0442 17.7848
145 3 4 0.0530 -4.1529 4.9989 5.3002
146 3 4 0.0530 -5.5474 5.2767 4.1940
147 3 4 0.0530 -3.8687 5.5996 3.6258
148 3 4 0.0530 -5.4974 7.5331 4.4440
149 3 4 0.0530 -6.0151 6.4983 6.5733
150 3 4 0.0530 -4.3169 6.5133 7.0523
151 3 4 0.0530 -6.0534 9.6320 5.4498
152 3 4 0.0530 -7.2011 8.4219 6.1306
153 3 4 0.0530 -6.8445 9.9358 7.0395
154 3 4 0.0530 -4.3557 9.0312 6.8317
155 3 4 0.0530 -5.5225 9.6851 8.8537
156 3 4 0.0530 -6.4045 8.1574 8.8999
157 3 4 0.0530 -2.5541 8.3119 8.2316
158 3 4 0.0530 -3.2261 9.8008 8.9911
159 3 4 0.0530 -2.3189 8.6095 9.9926
160 3 4 0.0530 -4.1834 6.9663 9.0577
161 3 4 0.0530 -3.5823 7.3458 11.3739
162 3 4 0.0530 -4.4921 8.8571 11.4164
163 3 4 0.0530 -5.9659 5.5846 9.8574
164 3 4 0.0530 -4.5714 5.3068 10.9635
165 3 4 0.0530 -6.2501 4.9838 11.5317
166 3 4 0.0530 -6.5702 7.5331 10.8548
167 3 4 0.0530 -7.0880 6.4983 12.9841
168 3 4 0.0530 -5.3897 6.5133 13.4632
169 3 4 0.0530 -7.1262 9.6320 11.8606
170 3 4 0.0530 -8.2739 8.4219 12.5415
171 3 4 0.0530 -7.9173 9.9358 13.4503
172 3 4 0.0530 -5.4285 9.0312 13.2426
173 3 4 0.0530 -6.5953 9.6851 15.2645
174 3 4 0.0530 -7.4773 8.1574 15.3107
175 3 4 0.0530 -3.6269 8.3119 14.6424
176 3 4 0.0530 -4.2990 9.8008 15.4020
177 3 4 0.0530 -3.3917 8.6095 16.4035
178 3 4 0.0530 -5.2562 6.9663 15.4685
179 3 4 0.0530 -5.5650 8.8571 17.8273
180 3 4 0.0530 -4.6551 7.3458 17.7848
181 4 4 0.0530 -5.0110 -5.2767 0.9886
182 4 4 0.0530 -3.6165 -4.9989 2.0948
183 4 4 0.0530 -3.3323 -5.5996 0.4204
184 4 4 0.0530 -4.9610 -7.5331 1.2385
185 4 4 0.0530 -3.7805 -6.5133 3.8469
186 4 4 0.0530 -5.4787 -6.4983 3.3678
187 4 4 0.0530 -6.6647 -8.4219 2.9252
188 4 4 0.0530 -5.5170 -9.6320 2.2443
189 4 4 0.0530 -6.3081 -9.9358 3.8340
190 4 4 0.0530 -3.8193 -9.0312 3.6263
191 4 4 0.0530 -5.8681 -8.1574 5.6945
192 4 4 0.0530 -4.9861 -9.6851 5.6483
193 4 4 0.0530 -2.6897 -9.8008 5.7857
194 4 4 0.0530 -2.0177 -8.3119 5.0261
195 4 4 0.0530 -1.7825 -8.6095 6.7872
196 4 4 0.0530 -3.6470 -6.9663 5.8523
197 4 4 0.0530 -3.9557 -8.8571 8.2110
198 4 4 0.0530 -3.0459 -7.3458 8.1685
199 4 4 0.0530 -4.0350 -5.3068 7.7581
200 4 4 0.0530 -5.4294 -5.5846 6.6519
201 4 4 0.0530 -5.7137 -4.9838 8.3263
202 4 4 0.0530 -6.0338 -7.5331 7.6494
203 4 4 0.0530 -4.8533 -6.5133 10.2577
204 4 4 0.0530 -6.5516 -6.4983 9.7787
205 4 4 0.0530 -7.7375 -8.4219 9.3360
206 4 4 0.0530 -6.5898 -9.6320 8.6552
207 4 4 0.0530 -7.3809 -9.9358 10.2449
208 4 4 0.0530 -4.8921 -9.0312 10.0372
209 4 4 0.0530 -6.9409 -8.1574 12.1053
210 4 4 0.0530 -6.0589 -9.6851 12.0591
211 4 4 0.0530 -3.7626 -9.8008 12.1965
212 4 4 0.0530 -3.0905 -8.3119 11.4370
213 4 4 0.0530 -2.8553 -8.6095 13.1981
214 4 4 0.0530 -4.7198 -6.9663 12.2631
215 4 4 0.0530 -4.1187 -7.3458 14.5794
216 4 4 0.0530 -5.0285 -8.8571 14.6219

Bonds

1 1 1 2
2 1 2 3
3 1 2 18
4 1 3 5
5 1 4 5
6 1 5 6
7 1 6 8
8 1 7 8
9 1 8 9
10 1 9 11
11 1 10 11
12 1 11 12
13 1 12 14
14 1 13 14
15 1 14 15
16 1 15 17
17 1 16 17
18 1 17 18
19 1 19 20
20 1 20 21
21 1 20 36
22 1 21 23
23 1 22 23
24 1 23 24
25 1 24 26
26 1 25 26
27 1 26 27
28 1 27 29
29 1 28 29
30 1 29 30
31 1 30 32
32 1 31 32
33 1 32 33
34 1 33 35
35 1 34 35
36 1 35 36
37 1 37 38
38 1 38 39
39 1 38 54
40 1 39 41
41 1 40 41
42 1 41 42
43 1 42 44
44 1 43 44
45 1 44 45
46 1 45 47
47 1 46 47
48 1 47 48
49 1 48 50
50 1 49 50
51 1 50 51
52 1 51 53
53 1 52 53
54 1 53 54
55 1 55 56
56 1 56 57
57 1 56 72
58 1 57 59
59 1 58 59
60 1 59 60
61 1 60 62
62 1 61 62
63 1 62 63
64 1 63 65
65 1 64 65
66 1 65 66
67 1 66 68
68 1 67 68
69 1 68 69
70 1 69 71
71 1 70 71
72 1 71 72
73 2 1 75
74 2 1 74
75 2 1 73
76 2 2 76
77 2 3 78
78 2 3 77
79 2 4 81
80 2 4 80
81 2 4 79
82 2 5 82
83 2 6 84
84 2 6 83
85 2 7 87
86 2 7 86
87 2 7 85
88 2 8 88
89 2 9 90
90 2 9 89
91 2 10 93
92 2 10 92
93 2 10 91
94 2 11 94
95 2 12 96
96 2 12 95
97 2 13 99
98 2 13 98
99 2 13 97
100 2 14 100
101 2 15 102
102 2 15 101
103 2 16 105
104 2 16 104
105 2 16 103
106 2 17 106
107 2 18 108
108 2 18 107
109 2 19 111
110 2 19 110
111 2 19 109
112 2 20 112
113 2 21 114
114 2 21 113
115 2 22 117
116 2 22 116
117 2 22 115
118 2 23 118
119 2 24 120
120 2 24 119
121 2 25 123
122 2 25 122
123 2 25 121
124 2 26 124
125 2 27 126
126 2 27 125
127 2 28 129
128 2 28 128
129 2 28 127
130 2 29 130
131 2 30 132
132 2 30 131
133 2 31 135
134 2 31 134
135 2 31 133
136 2 32 136
137 2 33 138
138 2 33 137
139 2 34 141
140 2 34 140
141 2 34 139
142 2 35 142
143 2 36 144
144 2 36 143
145 2 37 147
146 2 37 146
147 2 37 145
148 2 38 148
149 2 39 150
150 2 39 149
151 2 40 153
152 2 40 152
153 2 40 151
154 2 41 154
155 2 42 156
156 2 42 155
157 2 43 159
158 2 43 158
159 2 43 157
160 2 44 160
161 2 45 162
162 2 45 161
163 2 46 165
164 2 46 164
165 2 46 163
166 2 47 166
167 2 48 168
168 2 48 167
169 2 49 171
170 2 49 170
171 2 49 169
172 2 50 172
173 2 51 174
174 2 51 173
175 2 52 177
176 2 52 176
177 2 52 175
178 2 53 178
179 2 54 180
180 2 54 179
181 2 55 183
182 2 55 182
183 2 55 181
184 2 56 184
185 2 57 186
186 2 57 185
187 2 58 189
188 2 58 188
189 2 58 187
190 2 59 190
191 2 60 192
192 2 60 191
193 2 61 195
194 2 61 194
195 2 61 193
196 2 62 196
197 2 63 198
198 2 63 197
199 2 64 201
200 2 64 200
201 2 64 199
202 2 65 202
203 2 66 204
204 2 66 203
205 2 67 207
206 2 67 206
207 2 67 205
208 2 68 208
209 2 69 210
210 2 69 209
211 2 70 213
212 2 70 212
213 2 70 211
214 2 71 214
215 2 72 216
216 2 72 215

Angles

1 1 2 1 73
2 1 2 1 74
3 1 2 1 75
4 2 73 1 74
5 2 73 1 75
6 2 74 1 75
7 3 1 2 3
8 3 1 2 18
9 1 1 2 76
10 3 3 2 18
11 1 3 2 76
12 1 18 2 76
13 3 2 3 5
14 1 2 3 77
15 1 2 3 78
16 1 5 3 77
17 1 5 3 78
18 2 77 3 78
19 1 5 4 79
20 1 5 4 80
21 1 5 4 81
22 2 79 4 80
23 2 79 4 81
24 2 80 4 81
25 3 3 5 4
26 3 3 5 6
27 1 3 5 82
28 3 4 5 6
29 1 4 5 82
30 1 6 5 82
31 3 5 6 8
32 1 5 6 83
33 1 5 6 84
34 1 8 6 83
35 1 8 6 84
36 2 83 6 84
37 1 8 7 85
38 1 8 7 86
39 1 8 7 87
40 2 85 7 86
41 2 85 7 87
42 2 86 7 87
43 3 6 8 7
44 3 6 8 9
45 1 6 8 88
46 3 7 8 9
47 1 7 8 88
48 1 9 8 88
49 3 8 9 11
50 1 8 9 89
51 1 8 9 90
52 1 11 9 89
53 1 11 9 90
54 2 89 9 90
55 1 11 10 91
56 1 11 10 92
57 1 11 10 93
58 2 91 10 92
59 2 91 10 93
60 2 92 10 93
61 3 9 11 10
62 3 9 11 12
63 1 9 11 94
64 3 10 11 12
65 1 10 11 94
66 1 12 11 94
67 3 11 12 14
68 1 11 12 95
69 1 11 12 96
70 1 14 12 95
71 1 14 12 96
72 2 95 12 96
73 1 14 13 97
74 1 14 13 98
75 1 14 13 99
76 2 97 13 98
77 2 97 13 99
78 2 98 13 99
79 3 12 14 13
80 3 12 14 15
81 1 12 14 100
82 3 13 14 15
83 1 13 14 100
84 1 15 14 100
85 3 14 15 17
86 1 14 15 101
87 1 14 15 102
88 1 17 15 101
89 1 17 15 102
90 2 101 15 102
91 1 17 16 103
92 1 17 16 104
93 1 17 16 105
94 2 103 16 104
95 2 103 16 105
96 2 104 16 105
97 3 15 17 16
98 3 15 17 18
99 1 15 17 106
100 3 16 17 18
101 1 16 17 106
102 1 18 17 106
103 3 2 18 17
104 1 2 18 107
105 1 2 18 108
106 1 17 18 107
107 1 17 18 108
108 2 107 18 108
109 1 20 19 109
110 1 20 19 110
111 1 20 19 111
112 2 109 19 110
113 2 109 19 111
114 2 110 19 111
115 3 19 20 21
116 3 19 20 36
117 1 19 20 112
118 3 21 20 36
119 1 21 20 112
120 1 36 20 112
121 3 20 21 23
122 1 20 21 113
123 1 20 21 114
124 1 23 21 113
125 1 23 21 114
126 2 113 21 114
127 1 23 22 115
128 1 23 22 116
129 1 23 22 117
130 2 115 22 116
131 2 115 22 117
132 2 116 22 117
133 3 21 23 22
134 3 21 23 24
135 1 21 23 118
136 3 22 23 24
137 1 22 23 118
138 1 24 23 118
139 3 23 24 26
140 1 23 24 119
141 1 23 24 120
142 1 26 24 119
143 1 26 24 120
144 2 119 24 120
145 1 26 25 121
146 1 26 25 122
147 1 26 25 123
148 2 121 25 122
149 2 121 25 123
150 2 122 25 123
151 3 24 26 25
152 3 24 26 27
153 1 24 26 124
154 3 25 26 27
155 1 25 26 124
156 1 27 26 124
157 3 26 27 29
158 1 26 27 125
159 1 26 27 126
160 1 29 27 125
161 1 29 27 126
162 2 125 27 126
163 1 29 28 127
164 1 29 28 128
165 1 29 28 129
166 2 127 28 128
167 2 127 28 129
168 2 128 28 129
169 3 27 29 28
170 3 27 29 30
171 1 27 29 130
172 3 28 29 30
173 1 28 29 130
174 1 30 29 130
175 3 29 30 32
176 1 29 30 131
177 1 29 30 132
178 1 32 30 131
179 1 32 30 132
180 2 131 30 132
181 1 32 31 133
182 1 32 31 134
183 1 32 31 135
184 2 133 31 134
185 2 133 31 135
186 2 134 31 135
187 3 30 32 31
188 3 30 32 33
189 1 30 32 136
190 3 31 32 33
191 1 31 32 136
192 1 33 32 136
193 3 32 33 35
194 1 32 33 137
195 1 32 33 138
196 1 35 33 137
197 1 35 33 138
198 2 137 33 138
199 1 35 34 139
200 1 35 34 140
201 1 35 34 141
202 2 139 34 140
203 2 139 34 141
204 2 140 34 141
205 3 33 35 34
206 3 33 35 36
207 1 33 35 142
208 3 34 35 36
209 1 34 35 142
210 1 36 35 142
211 3 20 36 35
212 1 20 36 143
213 1 20 36 144
214 1 35 36 143
215 1 35 36 144
216 2 143 36 144
217 1 38 37 145
218 1 38 37 146
219 1 38 37 147
220 2 145 37 146
221 2 145 37 147
222 2 146 37 147
223 3 37 38 39
224 3 37 38 54
225 1 37 38 148
226 3 39 38 54
227 1 39 38 148
228 1 54 38 148
229 3 38 39 41
230 1 38 39 149
231 1 38 39 150
232 1 41 39 149
233 1 41 39 150
234 2 149 39 150
235 1 41 40 151
236 1 41 40 152
237 1 41 40 153
238 2 151 40 152
239 2 151 40 153
240 2 152 40 153
241 3 39 41 40
242 3 39 41 42
243 1 39 41 154
244 3 40 41 42
245 1 40 41 154
246 1 42 41 154
247 3 41 42 44
248 1 41 42 155
249 1 41 42 156
250 1 44 42 155
251 1 44 42 156
252 2 155 42 156
253 1 44 43 157
254 1 44 43 158
255 1 44 43 159
256 2 157 43 158
257 2 157 43 159
258 2 158 43 159
259 3 42 44 43
260 3 42 44 45
261 1 42 44 160
262 3 43 44 45
263 1 43 44 160
264 1 45 44 160
265 3 44 45 47
266 1 44 45 161
267 1 44 45 162
268 1 47 45 161
269 1 47 45 162
270 2 161 45 162
271 1 47 46 163
272 1 47 46 164
273 1 47 46 165
274 2 163 46 164
275 2 163 46 165
276 2 164 46 165
277 3 45 47 46
278 3 45 47 48
279 1 45 47 166
280 3 46 47 48
281 1 46 47 166
282 1 48 47 166
283 3 47 48 50
284 1 47 48 167
285 1 47 48 168
286 1 50 48 167
287 1 50 48 168
288 2 167 48 168
289 1 50 49 169
290 1 50 49 170
291 1 50 49 171
292 2 169 49 170
293 2 169 49 171
294 2 170 49 171
295 3 48 50 49
296 3 48 50 51
297 1 48 50 172
298 3 49 50 51
299 1 49 50 172
300 1 51 50 172
301 3 50 51 53
302 1 50 51 173
303 1 50 51 174
304 1 53 51 173
305 1 53 51 174
306 2 173 51 174
307 1 53 52 175
308 1 53 52 176
309 1 53 52 177
310 2 175 52 176
311 2 175 52 177
312 2 176 52 177
313 3 51 53 52
314 3 51 53 54
315 1 51 53 178
316 3 52 53 54
317 1 52 53 178
318 1 54 53 178
319 3 38 54 53
320 1 38 54 179
321 1 38 54 180
322 1 53 54 179
323 1 53 54 180
324 2 179 54 180
325 1 56 55 181
326 1 56 55 182
327 1 56 55 183
328 2 181 55 182
329 2 181 55 183
330 2 182 55 183
331 3 55 56 57
332 3 55 56 72
333 1 55 56 184
334 3 57 56 72
335 1 57 56 184
336 1 72 56 184
337 3 56 57 59
338 1 56 57 185
339 1 56 57 186
340 1 59 57 185
341 1 59 57 186
342 2 185 57 186
343 1 59 58 187
344 1 59 58 188
345 1 59 58 189
346 2 187 58 188
347 2 187 58 189
348 2 188 58 189
349 3 57 59 58
350 3 57 59 60
351 1 57 59 190
352 3 58 59 60
353 1 58 59 190
354 1 60 59 190
355 3 59 60 62
356 1 59 60 191
357 1 59 60 192
358 1 62 60 191
359 1 62 60 192
360 2 191 60 192
361 1 62 61 193
362 1 62 61 194
363 1 62 61 195
364 2 193 61 194
365 2 193 61 195
366 2 194 61 195
367 3 60 62 61
368 3 60 62 63
369 1 60 62 196
370 3 61 62 63
371 1 61 62 196
372 1 63 62 196
373 3 62 63 65
374 1 62 63 197
375 1 62 63 198
376 1 65 63 197
377 1 65 63 198
378 2 197 63 198
379 1 65 64 199
380 1 65 64 200
381 1 65 64 201
382 2 199 64 200
383 2 199 64 201
384 2 200 64 201
385 3 63 65 64
386 3 63 65 66
387 1 63 65 202
388 3 64 65 66
389 1 64 65 202
390 1 66 65 202
391 3 65 66 68
392 1 65 66 203
393 1 65 66 204
394 1 68 66 203
395 1 68 66 204
396 2 203 66 204
397 1 68 67 205
398 1 68 67 206
399 1 68 67 207
400 2 205 67 206
401 2 205 67 207
402 2 206 67 207
403 3 66 68 67
404 3 66 68 69
405 1 66 68 208
406 3 67 68 69
407 1 67 68 208
408 1 69 68 208
409 3 68 69 71
410 1 68 69 209
411 1 68 69 210
412 1 71 69 209
413 1 71 69 210
414 2 209 69 210
415 1 71 70 211
416 1 71 70 212
417 1 71 70 213
418 2 211 70 212
419 2 211 70 213
420 2 212 70 213
421 3 69 71 70
422 3 69 71 72
423 1 69 71 214
424 3 70 71 72
425 1 70 71 214
426 1 72 71 214
427 3 56 72 71
428 1 56 72 215
429 1 56 72 216
430 1 71 72 215
431 1 71 72 216
432 2 215 72 216

Dihedrals

1 1 3 2 1 75
2 1 18 2 1 75
3 2 75 1 2 76
4 1 3 2 1 74
5 1 18 2 1 74
6 2 74 1 2 76
7 1 3 2 1 73
8 1 18 2 1 73
9 2 73 1 2 76
10 3 1 2 3 5
11 1 1 2 3 78
12 1 1 2 3 77
13 3 18 2 3 5
14 1 18 2 3 78
15 1 18 2 3 77
16 1 5 3 2 76
17 2 76 2 3 78
18 2 76 2 3 77
19 3 1 2 18 17
20 1 1 2 18 108
21 1 1 2 18 107
22 3 3 2 18 17
23 1 3 2 18 108
24 1 3 2 18 107
25 1 17 18 2 76
26 2 76 2 18 108
27 2 76 2 18 107
28 3 2 3 5 4
29 3 2 3 5 6
30 1 2 3 5 82
31 1 4 5 3 78
32 1 6 5 3 78
33 2 78 3 5 82
34 1 4 5 3 77
35 1 6 5 3 77
36 2 77 3 5 82
37 1 3 5 4 81
38 1 6 5 4 81
39 2 81 4 5 82
40 1 3 5 4 80
41 1 6 5 4 80
42 2 80 4 5 82
43 1 3 5 4 79
44 1 6 5 4 79
45 2 79 4 5 82
46 3 3 5 6 8
47 1 3 5 6 84
48 1 3 5 6 83
49 3 4 5 6 8
50 1 4 5 6 84
51 1 4 5 6 83
52 1 8 6 5 82
53 2 82 5 6 84
54 2 82 5 6 83
55 3 5 6 8 7
56 3 5 6 8 9
57 1 5 6 8 88
58 1 7 8 6 84
59 1 9 8 6 84
60 2 84 6 8 88
61 1 7 8 6 83
62 1 9 8 6 83
63 2 83 6 8 88
64 1 6 8 7 87
65 1 9 8 7 87
66 2 87 7 8 88
67 1 6 8 7 86
68 1 9 8 7 86
69 2 86 7 8 88
70 1 6 8 7 85
71 1 9 8 7 85
72 2 85 7 8 88
73 3 6 8 9 11
74 1 6 8 9 90
75 1 6 8 9 89
76 3 7 8 9 11
77 1 7 8 9 90
78 1 7 8 9 89
79 1 11 9 8 88
80 2 88 8 9 90
81 2 88 8 9 89
82 3 8 9 11 10
83 3 8 9 11 12
84 1 8 9 11 94
85 1 10 11 9 90
86 1 12 11 9 90
87 2 90 9 11 94
88 1 10 11 9 89
89 1 12 11 9 89
90 2 89 9 11 94
91 1 9 11 10 93
92 1 12 11 10 93
93 2 93 10 11 94
94 1 9 11 10 92
95 1 12 11 10 92
96 2 92 10 11 94
97 1 9 11 10 91
98 1 12 11 10 91
99 2 91 10 11 94
100 3 9 11 12 14
101 1 9 11 12 96
102 1 9 11 12 95
103 3 10 11 12 14
104 1 10 11 12 96
105 1 10 11 12 95
106 1 14 12 11 94
107 2 94 11 12 96
108 2 94 11 12 95
109 3 11 12 14 13
110 3 11 12 14 15
111 1 11 12 14 100
112 1 13 14 12 96
113 1 15 14 12 96
114 2 96 12 14 100
115 1 13 14 12 95
116 1 15 14 12 95
117 2 95 12 14 100
118 1 12 14 13 99
119 1 15 14 13 99
120 2 99 13 14 100
121 1 12 14 13 98
122 1 15 14 13 98
123 2 98 13 14 100
124 1 12 14 13 97
125 1 15 14 13 97
126 2 97 13 14 100
127 3 12 14 15 17
128 1 12 14 15 102
129 1 12 14 15 101
130 3 13 14 15 17
131 1 13 14 15 102
132 1 13 14 15 101
133 1 17 15 14 100
134 2 100 14 15 102
135 2 100 14 15 101
136 3 14 15 17 16
137 3 14 15 17 18
138 1 14 15 17 106
139 1 16 17 15 102
140 1 18 17 15 102
141 2 102 15 17 106
142 1 16 17 15 101
143 1 18 17 15 101
144 2 101 15 17 106
145 1 15 17 16 105
146 1 18 17 16 105
147 2 105 16 17 106
148 1 15 17 16 104
149 1 18 17 16 104
150 2 104 16 17 106
151 1 15 17 16 103
152 1 18 17 16 103
153 2 103 16 17 106
154 3 15 17 18 2
155 1 15 17 18 108
156 1 15 17 18 107
157 3 16 17 18 2
158 1 16 17 18 108
159 1 16 17 18 107
160 1 2 18 17 106
161 2 106 17 18 108
162 2 106 17 18 107
163 1 21 20 19 111
164 1 36 20 19 111
165 2 111 19 20 112
166 1 21 20 19 110
167 1 36 20 19 110
168 2 110 19 20 112
169 1 21 20 19 109
170 1 36 20 19 109
171 2 109 19 20 112
172 3 19 20 21 23
173 1 19 20 21 114
174 1 19 20 21 113
175 3 36 20 21 23
176 1 36 20 21 114
177 1 36 20 21 113
178 1 23 21 20 112
179 2 112 20 21 114
180 2 112 20 21 113
181 3 19 20 36 35
182 1 19 20 36 144
183 1 19 20 36 143
184 3 21 20 36 35
185 1 21 20 36 144
186 1 21 20 36 143
187 1 35 36 20 112
188 2 112 20 36 144
189 2 112 20 36 143
190 3 20 21 23 22
191 3 20 21 23 24
192 1 20 21 23 118
193 1 22 23 21 114
194 1 24 23 21 114
195 2 114 21 23 118
196 1 22 23 21 113
197 1 24 23 21 113
198 2 113 21 23 118
199 1 21 23 22 117
200 1 24 23 22 117
201 2 117 22 23 118
202 1 21 23 22 116
203 1 24 23 22 116
204 2 116 22 23 118
205 1 21 23 22 115
206 1 24 23 22 115
207 2 115 22 23 118
208 3 21 23 24 26
209 1 21 23 24 120
210 1 21 23 24 119
211 3 22 23 24 26
212 1 22 23 24 120
213 1 22 23 24 119
214 1 26 24 23 118
215 2 118 23 24 120
216 2 118 23 24 119
217 3 23 24 26 25
218 3 23 24 26 27
219 1 23 24 26 124
220 1 25 26 24 120
221 1 27 26 24 120
222 2 120 24 26 124
223 1 25 26 24 119
224 1 27 26 24 119
225 2 119 24 26 124
226 1 24 26 25 123
227 1 27 26 25 123
228 2 123 25 26 124
229 1 24 26 25 122
230 1 27 26 25 122
231 2 122 25 26 124
232 1 24 26 25 121
233 1 27 26 25 121
234 2 121 25 26 124
235 3 24 26 27 29
236 1 24 26 27 126
237 1 24 26 27 125
238 3 25 26 27 29
239 1 25 26 27 126
240 1 25 26 27 125
241 1 29 27 26 124
242 2 124 26 27 126
243 2 124 26 27 125
244 3 26 27 29 28
245 3 26 27 29 30
246 1 26 27 29 130
247 1 28 29 27 126
248 1 30 29 27 126
249 2 126 27 29 130
250 1 28 29 27 125
251 1 30 29 27 125
252 2 125 27 29 130
253 1 27 29 28 129
254 1 30 29 28 129
255 2 129 28 29 130
256 1 27 29 28 128
257 1 30 29 28 128
258 2 128 28 29 130
259 1 27 29 28 127
260 1 30 29 28 127
261 2 127 28 29 130
262 3 27 29 30 32
263 1 27 29 30 132
264 1 27 29 30 131
265 3 28 29 30 32
266 1 28 29 30 132
267 1 28 29 30 131
268 1 32 30 29 130
269 2 130 29 30 132
270 2 130 29 30 131
271 3 29 30 32 31
272 3 29 30 32 33
273 1 29 30 32 136
274 1 31 32 30 132
275 1 33 32 30 132
276 2 132 30 32 136
277 1 31 32 30 131
278 1 33 32 30 131
279 2 131 30 32 136
280 1 30 32 31 135
281 1 33 32 31 135
282 2 135 31 32 136
283 1 30 32 31 134
284 1 33 32 31 134
285 2 134 31 32 136
286 1 30 32 31 133
287 1 33 32 31 133
288 2 133 31 32 136
289 3 30 32 33 35
290 1 30 32 33 138
291 1 30 32 33 137
292 3 31 32 33 35
293 1 31 32 33 138
294 1 31 32 33 137
295 1 35 33 32 136
296 2 136 32 33 138
297 2 136 32 33 137
298 3 32 33 35 34
299 3 32 33 35 36
300 1 32 33 35 142
301 1 34 35 33 138
302 1 36 35 33 138
303 2 138 33 35 142
304 1 34 35 33 137
305 1 36 35 33 137
306 2 137 33 35 142
307 1 33 35 34 141
308 1 36 35 34 141
309 2 141 34 35 142
310 1 33 35 34 140
311 1 36 35 34 140
312 2 140 34 35 142
313 1 33 35 34 139
314 1 36 35 34 139
315 2 139 34 35 142
316 3 33 35 36 20
317 1 33 35 36 144
318 1 33 35 36 143
319 3 34 35 36 20
320 1 34 35 36 144
321 1 34 35 36 143
322 1 20 36 35 142
323 2 142 35 36 144
324 2 142 35 36 143
325 1 39 38 37 147
326 1 54 38 37 147
327 2 147 37 38 148
328 1 39 38 37 146
329 1 54 38 37 146
330 2 146 37 38 148
331 1 39 38 37 145
332 1 54 38 37 145
333 2 145 37 38 148
334 3 37 38 39 41
335 1 37 38 39 150
336 1 37 38 39 149
337 3 54 38 39 41
338 1 54 38 39 150
339 1 54 38 39 149
340 1 41 39 38 148
341 2 148 38 39 150
342 2 148 38 39 149
343 3 37 38 54 53
344 1 37 38 54 180
345 1 37 38 54 179
346 3 39 38 54 53
347 1 39 38 54 180
348 1 39 38 54 179
349 1 53 54 38 148
350 2 148 38 54 180
351 2 148 38 54 179
352 3 38 39 41 40
353 3 38 39 41 42
354 1 38 39 41 154
355 1 40 41 39 150
356 1 42 41 39 150
357 2 150 39 41 154
358 1 40 41 39 149
359 1 42 41 39 149
360 2 149 39 41 154
361 1 39 41 40 153
362 1 42 41 40 153
363 2 153 40 41 154
364 1 39 41 40 152
365 1 42 41 40 152
366 2 152 40 41 154
367 1 39 41 40 151
368 1 42 41 40 151
369 2 151 40 41 154
370 3 39 41 42 44
371 1 39 41 42 156
372 1 39 41 42 155
373 3 40 41 42 44
374 1 40 41 42 156
375 1 40 41 42 155
376 1 44 42 41 154
377 2 154 41 42 156
378 2 154 41 42 155
379 3 41 42 44 43
380 3 41 42 44 45
381 1 41 42 44 160
382 1 43 44 42 156
383 1 45 44 42 156
384 2 156 42 44 160
385 1 43 44 42 155
386 1 45 44 42 155
387 2 155 42 44 160
388 1 42 44 43 159
389 1 45 44 43 159
390 2 159 43 44 160
391 1 42 44 43 158
392 1 45 44 43 158
393 2 158 43 44 160
394 1 42 44 43 157
395 1 45 44 43 157
396 2 157 43 44 160
397 3 42 44 45 47
398 1 42 44 45 162
399 1 42 44 45 161
400 3 43 44 45 47
401 1 43 44 45 162
402 1 43 44 45 161
403 1 47 45 44 160
404 2 160 44 45 162
405 2 160 44 45 161
406 3 44 45 47 46
407 3 44 45 47 48
408 1 44 45 47 166
409 1 46 47 45 162
410 1 48 47 45 162
411 2 162 45 47 166
412 1 46 47 45 161
413 1 48 47 45 161
414 2 161 45 47 166
415 1 45 47 46 165
416 1 48 47 46 165
417 2 165 46 47 166
418 1 45 47 46 164
419 1 48 47 46 164
420 2 164 46 47 166
421 1 45 47 46 163
422 1 48 47 46 163
423 2 163 46 47 166
424 3 45 47 48 50
425 1 45 47 48 168
426 1 45 47 48 167
427 3 46 47 48 50
428 1 46 47 48 168
429 1 46 47 48 167
430 1 50 48 47 166
431 2 166 47 48 168
432 2 166 47 48 167
433 3 47 48 50 49
434 3 47 48 50 51
435 1 47 48 50 172
436 1 49 50 48 168
437 1 51 50 48 168
438 2 168 48 50 172
439 1 49 50 48 167
440 1 51 50 48 167
441 2 167 48 50 172
442 1 48 50 49 171
443 1 51 50 49 171
444 2 171 49 50 172
445 1 48 50 49 170
446 1 51 50 49 170
447 2 170 49 50 172
448 1 48 50 49 169
449 1 51 50 49 169
450 2 169 49 50 172
451 3 48 50 51 53
452 1 48 50 51 174
453 1 48 50 51 173
454 3 49 50 51 53
455 1 49 50 51 174
456 1 49 50 51 173
457 1 53 51 50 172
458 2 172 50 51 174
459 2 172 50 51 173
460 3 50 51 53 52
461 3 50 51 53 54
462 1 50 51 53 178
463 1 52 53 51 174
464 1 54 53 51 174
465 2 174 51 53 178
466 1 52 53 51 173
467 1 54 53 51 173
468 2 173 51 53 178
469 1 51 53 52 177
470 1 54 53 52 177
471 2 177 52 53 178
472 1 51 53 52 176
473 1 54 53 52 176
474 2 176 52 53 178
475 1 51 53 52 175
476 1 54 53 52 175
477 2 175 52 53 178
478 3 51 53 54 38
479 1 51 53 54 180
480 1 51 53 54 179
481 3 52 53 54 38
482 1 52 53 54 180
483 1 52 53 54 179
484 1 38 54 53 178
485 2 178 53 54 180
486 2 178 53 54 179
487 1 57 56 55 183
488 1 72 56 55 183
489 2 183 55 56 184
490 1 57 56 55 182
491 1 72 56 55 182
492 2 182 55 56 184
493 1 57 56 55 181
494 1 72 56 55 181
495 2 181 55 56 184
496 3 55 56 57 59
497 1 55 56 57 186
498 1 55 56 57 185
499 3 72 56 57 59
500 1 72 56 57 186
501 1 72 56 57 185
502 1 59 57 56 184
503 2 184 56 57 186
504 2 184 56 57 185
505 3 55 56 72 71
506 1 55 56 72 216
507 1 55 56 72 215
508 3 57 56 72 71
509 1 57 56 72 216
510 1 57 56 72 215
511 1 71 72 56 184
512 2 184 56 72 216
513 2 184 56 72 215
514 3 56 57 59 58
515 3 56 57 59 60
516 1 56 57 59 190
517 1 58 59 57 186
518 1 60 59 57 186
519 2 186 57 59 190
520 1 58 59 57 185
521 1 60 59 57 185
522 2 185 57 59 190
523 1 57 59 58 189
524 1 60 59 58 189
525 2 189 58 59 190
526 1 57 59 58 188
527 1 60 59 58 188
528 2 188 58 59 190
529 1 57 59 58 187
530 1 60 59 58 187
531 2 187 58 59 190
532 3 57 59 60 62
533 1 57 59 60 192
534 1 57 59 60 191
535 3 58 59 60 62
536 1 58 59 60 192
537 1 58 59 60 191
538 1 62 60 59 190
539 2 190 59 60 192
540 2 190 59 60 191
541 3 59 60 62 61
542 3 59 60 62 63
543 1 59 60 62 196
544 1 61 62 60 192
545 1 63 62 60 192
546 2 192 60 62 196
547 1 61 62 60 191
548 1 63 62 60 191
549 2 191 60 62 196
550 1 60 62 61 195
551 1 63 62 61 195
552 2 195 61 62 196
553 1 60 62 61 194
554 1 63 62 61 194
555 2 194 61 62 196
556 1 60 62 61 193
557 1 63 62 61 193
558 2 193 61 62 196
559 3 60 62 63 65
560 1 60 62 63 198
561 1 60 62 63 197
562 3 61 62 63 65
563 1 61 62 63 198
564 1 61 62 63 197
565 1 65 63 62 196
566 2 196 62 63 198
567 2 196 62 63 197
568 3 62 63 65 64
569 3 62 63 65 66
570 1 62 63 65 202
571 1 64 65 63 198
572 1 66 65 63 198
573 2 198 63 65 202
574 1 64 65 63 197
575 1 66 65 63 197
576 2 197 63 65 202
577 1 63 65 64 201
578 1 66 65 64 201
579 2 201 64 65 202
580 1 63 65 64 200
581 1 66 65 64 200
582 2 200 64 65 202
583 1 63 65 64 199
584 1 66 65 64 199
585 2 199 64 65 202
586 3 63 65 66 68
587 1 63 65 66 204
588 1 63 65 66 203
589 3 64 65 66 68
590 1 64 65 66 204
591 1 64 65 66 203
592 1 68 66 65 202
593 2 202 65 66 204
594 2 202 65 66 203
595 3 65 66 68 67
596 3 65 66 68 69
597 1 65 66 68 208
598 1 67 68 66 204
599 1 69 68 66 204
600 2 204 66 68 208
601 1 67 68 66 203
602 1 69 68 66 203
603 2 203 66 68 208
604 1 66 68 67 207
605 1 69 68 67 207
606 2 207 67 68 208
607 1 66 68 67 206
608 1 69 68 67 206
609 2 206 67 68 208
610 1 66 68 67 205
611 1 69 68 67 205
612 2 205 67 68 208
613 3 66 68 69 71
614 1 66 68 69 210
615 1 66 68 69 209
616 3 67 68 69 71
617 1 67 68 69 210
618 1 67 68 69 209
619 1 71 69 68 208
620 2 208 68 69 210
621 2 208 68 69 209
622 3 68 69 71 70
623 3 68 69 71 72
624 1 68 69 71 214
625 1 70 71 69 210
626 1 72 71 69 210
627 2 210 69 71 214
628 1 70 71 69 209
629 1 72 71 69 209
630 2 209 69 71 214
631 1 69 71 70 213
632 1 72 71 70 213
633 2 213 70 71 214
634 1 69 71 70 212
635 1 72 71 70 212
636 2 212 70 71 214
637 1 69 71 70 211
638 1 72 71 70 211
639 2 211 70 71 214
640 3 69 71 72 56
641 1 69 71 72 216
642 1 69 71 72 215
643 3 70 71 72 56
644 1 70 71 72 216
645 1 70 71 72 215
646 1 56 72 71 214
647 2 214 71 72 216
648 2 214 71 72 215
