LAMMPS data file via write_data, version 3 Mar 2020, timestep = 0

83 atoms
4 atom types
82 bonds
7 bond types
162 angles
15 angle types
234 dihedrals
18 dihedral types
108 impropers
14 improper types

-2.2920199970000001e+00 6.7508800029999998e+00 xlo xhi
1.5502206020000000e+00 1.0593120602000001e+01 ylo yhi
-3.1709604539999998e+00 5.8719395460000001e+00 zlo zhi

Masses

1 1.00797
2 12.0112
3 12.0112
4 12.0112

Pair Coeffs # lj/class2/coul/long

1 0.02 2.995	#hc
2 0.054 4.01	#c3	
3 0.054 4.01	#c1
4 0.054 4.01	#c2

Bond Coeffs # class2

1 1.101 345 -691.89 844.6
2 1.53 299.67 -501.77 679.81
3 1.101 345 -691.89 844.6
4 1.53 299.67 -501.77 679.81
5 1.101 345 -691.89 844.6
6 1.53 299.67 -501.77 679.81
7 1.53 299.67 -501.77 679.81

Angle Coeffs # class2

1 110.77 41.453 -10.604 5.129
2 107.66 39.641 -12.921 -2.4318
3 110.77 41.453 -10.604 5.129
4 112.67 39.516 -7.443 -9.5583
5 112.67 39.516 -7.443 -9.5583
6 110.77 41.453 -10.604 5.129
7 110.77 41.453 -10.604 5.129
8 112.67 39.516 -7.443 -9.5583
9 107.66 39.641 -12.921 -2.4318
10 112.67 39.516 -7.443 -9.5583
11 110.77 41.453 -10.604 5.129
12 112.67 39.516 -7.443 -9.5583
13 112.67 39.516 -7.443 -9.5583
14 110.77 41.453 -10.604 5.129
15 110.77 41.453 -10.604 5.129

BondBond Coeffs

1 3.3872 1.101 1.53
2 5.3316 1.101 1.101
3 3.3872 1.101 1.53
4 0 1.53 1.53
5 0 1.53 1.53
6 3.3872 1.101 1.53
7 3.3872 1.101 1.53
8 0 1.53 1.53
9 5.3316 1.101 1.101
10 0 1.53 1.53
11 3.3872 1.101 1.53
12 0 1.53 1.53
13 0 1.53 1.53
14 3.3872 1.101 1.53
15 3.3872 1.101 1.53

BondAngle Coeffs

1 11.421 20.754 1.101 1.53
2 18.103 18.103 1.101 1.101
3 11.421 20.754 1.101 1.53
4 8.016 8.016 1.53 1.53
5 8.016 8.016 1.53 1.53
6 11.421 20.754 1.101 1.53
7 11.421 20.754 1.101 1.53
8 8.016 8.016 1.53 1.53
9 18.103 18.103 1.101 1.101
10 8.016 8.016 1.53 1.53
11 11.421 20.754 1.101 1.53
12 8.016 8.016 1.53 1.53
13 8.016 8.016 1.53 1.53
14 11.421 20.754 1.101 1.53
15 11.421 20.754 1.101 1.53

Dihedral Coeffs # class2

1 -0.1432 0 0.0617 0 -0.1083 0
2 0 0 0.0316 0 -0.1681 0
3 0 0 0.0316 0 -0.1681 0
4 0 0 0.0514 0 -0.143 0
5 0 0 0.0316 0 -0.1681 0
6 0 0 0.0316 0 -0.1681 0
7 -0.1432 0 0.0617 0 -0.1083 0
8 0 0 0.0316 0 -0.1681 0
9 0 0 0.0514 0 -0.143 0
10 0 0 0.0514 0 -0.143 0
11 0 0 0.0316 0 -0.1681 0
12 0 0 0.0514 0 -0.143 0
13 -0.1432 0 0.0617 0 -0.1083 0
14 0 0 0.0316 0 -0.1681 0
15 0 0 0.0316 0 -0.1681 0
16 0 0 0.0514 0 -0.143 0
17 0 0 0.0316 0 -0.1681 0
18 -0.1432 0 0.0617 0 -0.1083 0

AngleAngleTorsion Coeffs

1 -12.564 110.77 110.77
2 -16.164 110.77 112.67
3 -16.164 110.77 112.67
4 -22.045 112.67 112.67
5 -16.164 112.67 110.77
6 -16.164 110.77 112.67
7 -12.564 110.77 110.77
8 -16.164 112.67 110.77
9 -22.045 112.67 112.67
10 -22.045 112.67 112.67
11 -16.164 110.77 112.67
12 -22.045 112.67 112.67
13 -12.564 110.77 110.77
14 -16.164 110.77 112.67
15 -16.164 110.77 112.67
16 -22.045 112.67 112.67
17 -16.164 110.77 112.67
18 -12.564 110.77 110.77

EndBondTorsion Coeffs

1 0.213 0.312 0.0777 0.213 0.312 0.0777 1.101 1.101
2 0.0814 0.0591 0.2219 0.2486 0.2422 -0.0925 1.101 1.53
3 0.0814 0.0591 0.2219 0.2486 0.2422 -0.0925 1.101 1.53
4 -0.0732 0 0 -0.0732 0 0 1.53 1.53
5 0.2486 0.2422 -0.0925 0.0814 0.0591 0.2219 1.53 1.101
6 0.0814 0.0591 0.2219 0.2486 0.2422 -0.0925 1.101 1.53
7 0.213 0.312 0.0777 0.213 0.312 0.0777 1.101 1.101
8 0.2486 0.2422 -0.0925 0.0814 0.0591 0.2219 1.53 1.101
9 -0.0732 0 0 -0.0732 0 0 1.53 1.53
10 -0.0732 0 0 -0.0732 0 0 1.53 1.53
11 0.0814 0.0591 0.2219 0.2486 0.2422 -0.0925 1.101 1.53
12 -0.0732 0 0 -0.0732 0 0 1.53 1.53
13 0.213 0.312 0.0777 0.213 0.312 0.0777 1.101 1.101
14 0.0814 0.0591 0.2219 0.2486 0.2422 -0.0925 1.101 1.53
15 0.0814 0.0591 0.2219 0.2486 0.2422 -0.0925 1.101 1.53
16 -0.0732 0 0 -0.0732 0 0 1.53 1.53
17 0.0814 0.0591 0.2219 0.2486 0.2422 -0.0925 1.101 1.53
18 0.213 0.312 0.0777 0.213 0.312 0.0777 1.101 1.101

MiddleBondTorsion Coeffs

1 -14.261 -0.5322 -0.4864 1.53
2 -14.879 -3.6581 -0.3138 1.53
3 -14.879 -3.6581 -0.3138 1.53
4 -17.787 -7.1877 0 1.53
5 -14.879 -3.6581 -0.3138 1.53
6 -14.879 -3.6581 -0.3138 1.53
7 -14.261 -0.5322 -0.4864 1.53
8 -14.879 -3.6581 -0.3138 1.53
9 -17.787 -7.1877 0 1.53
10 -17.787 -7.1877 0 1.53
11 -14.879 -3.6581 -0.3138 1.53
12 -17.787 -7.1877 0 1.53
13 -14.261 -0.5322 -0.4864 1.53
14 -14.879 -3.6581 -0.3138 1.53
15 -14.879 -3.6581 -0.3138 1.53
16 -17.787 -7.1877 0 1.53
17 -14.879 -3.6581 -0.3138 1.53
18 -14.261 -0.5322 -0.4864 1.53

BondBond13 Coeffs

1 0 1.101 1.101
2 0 1.101 1.53
3 0 1.101 1.53
4 0 1.53 1.53
5 0 1.53 1.101
6 0 1.101 1.53
7 0 1.101 1.101
8 0 1.53 1.101
9 0 1.53 1.53
10 0 1.53 1.53
11 0 1.101 1.53
12 0 1.53 1.53
13 0 1.101 1.101
14 0 1.101 1.53
15 0 1.101 1.53
16 0 1.53 1.53
17 0 1.101 1.53
18 0 1.101 1.101

AngleTorsion Coeffs

1 -0.8085 0.5569 -0.2466 -0.8085 0.5569 -0.2466 110.77 110.77
2 0.3113 0.4516 -0.1988 -0.2454 0 -0.1136 110.77 112.67
3 0.3113 0.4516 -0.1988 -0.2454 0 -0.1136 110.77 112.67
4 0.3886 -0.3139 0.1389 0.3886 -0.3139 0.1389 112.67 112.67
5 -0.2454 0 -0.1136 0.3113 0.4516 -0.1988 112.67 110.77
6 0.3113 0.4516 -0.1988 -0.2454 0 -0.1136 110.77 112.67
7 -0.8085 0.5569 -0.2466 -0.8085 0.5569 -0.2466 110.77 110.77
8 -0.2454 0 -0.1136 0.3113 0.4516 -0.1988 112.67 110.77
9 0.3886 -0.3139 0.1389 0.3886 -0.3139 0.1389 112.67 112.67
10 0.3886 -0.3139 0.1389 0.3886 -0.3139 0.1389 112.67 112.67
11 0.3113 0.4516 -0.1988 -0.2454 0 -0.1136 110.77 112.67
12 0.3886 -0.3139 0.1389 0.3886 -0.3139 0.1389 112.67 112.67
13 -0.8085 0.5569 -0.2466 -0.8085 0.5569 -0.2466 110.77 110.77
14 0.3113 0.4516 -0.1988 -0.2454 0 -0.1136 110.77 112.67
15 0.3113 0.4516 -0.1988 -0.2454 0 -0.1136 110.77 112.67
16 0.3886 -0.3139 0.1389 0.3886 -0.3139 0.1389 112.67 112.67
17 0.3113 0.4516 -0.1988 -0.2454 0 -0.1136 110.77 112.67
18 -0.8085 0.5569 -0.2466 -0.8085 0.5569 -0.2466 110.77 110.77

Improper Coeffs # class2

1 0 0
2 0 0
3 0 0
4 0 0
5 0 0
6 0 0
7 0 0
8 0 0
9 0 0
10 0 0
11 0 0
12 0 0
13 0 0
14 0 0

AngleAngle Coeffs

1 0.2738 0.2738 -0.4825 107.66 110.77 110.77
2 -0.3157 -0.3157 -0.3157 107.66 107.66 107.66
3 -1.3199 0.1184 -1.3199 110.77 112.67 110.77
4 -1.3199 0.1184 -1.3199 110.77 112.67 110.77
5 -0.1729 -0.1729 -0.1729 112.67 112.67 112.67
6 0.2738 0.2738 -0.4825 107.66 110.77 110.77
7 -1.3199 0.1184 -1.3199 110.77 112.67 110.77
8 -1.3199 0.1184 -1.3199 110.77 112.67 110.77
9 -0.1729 -0.1729 -0.1729 112.67 112.67 112.67
10 0.2738 0.2738 -0.4825 107.66 110.77 110.77
11 -1.3199 0.1184 -1.3199 110.77 112.67 110.77
12 -1.3199 0.1184 -1.3199 110.77 112.67 110.77
13 0.2738 0.2738 -0.4825 107.66 110.77 110.77
14 0.2738 0.2738 -0.4825 107.66 110.77 110.77

Atoms # full

6 1 1 5.2999999999999999e-02 -1.7897204990000000e+00 4.4433334770000004e+00 3.8380177049999999e+00 0 0 0
7 1 2 -1.5900000000000000e-01 -2.2371068990000000e+00 3.8094736560000002e+00 1.7742149420000000e+00 0 0 0
10 1 1 5.2999999999999999e-02 -1.1474161500000000e+00 3.8648495629999999e+00 1.4441852940000000e+00 0 0 0
11 2 4 -1.0600000000000000e-01 -1.6016360980000000e+00 2.2611990770000001e+00 3.6592251530000000e+00 0 0 0
12 2 3 -5.2999999999999999e-02 -9.0047036999999996e-02 2.4710071480000000e+00 3.4655196660000001e+00 0 0 0
13 2 1 5.2999999999999999e-02 -1.8094919690000000e+00 2.0002985700000000e+00 4.7494669629999997e+00 0 0 0
15 2 1 5.2999999999999999e-02 1.1385662700000000e-01 2.6005510219999999e+00 2.3512900449999998e+00 0 0 0
20 3 4 -1.0600000000000000e-01 3.4199962600000000e-01 3.7475662700000001e+00 4.2135437150000001e+00 0 0 0
22 3 1 5.2999999999999999e-02 8.3846289999999993e-03 4.6429718670000000e+00 3.5915880800000002e+00 0 0 0
23 3 1 5.2999999999999999e-02 -1.6900702500000001e-01 3.7929824839999999e+00 5.2313232650000003e+00 0 0 0
33 4 1 5.2999999999999999e-02 5.2348441199999995e-01 3.8738323800000001e+00 2.0128838409999998e+00 0 0 0
14 2 1 5.2999999999999999e-02 -1.9787198909999999e+00 1.0466914909000000e+01 2.9834324460000001e+00 0 -1 0
16 2 2 -1.5900000000000000e-01 6.2380003799999995e-01 1.0253295015999999e+01 3.9872941690000001e+00 0 -1 0
17 2 1 5.2999999999999999e-02 2.3063978700000001e-01 9.3454597370000005e+00 3.4205231010000001e+00 0 -1 0
18 2 1 5.2999999999999999e-02 4.0351779799999998e-01 1.0128610254000000e+01 5.0988185450000003e+00 0 -1 0
40 5 1 5.2999999999999999e-02 4.2109826400000000e-01 6.4108347930000003e+00 1.7891550979999999e+00 0 0 0
61 7 2 -1.5900000000000000e-01 -2.0856951900000000e+00 8.2745539120000000e+00 1.1522060080000001e+00 1 0 0
62 7 1 5.2999999999999999e-02 -1.9921720590000001e+00 7.9260422950000002e+00 2.2324376920000000e+00 1 0 0
63 7 1 5.2999999999999999e-02 -1.8137737340000000e+00 9.3787900420000003e+00 1.0754400930000001e+00 1 0 0
64 7 1 5.2999999999999999e-02 -1.3750199489999999e+00 7.6625553489999998e+00 5.0417956700000000e-01 1 0 0
21 3 3 -5.2999999999999999e-02 1.8724133569999999e+00 3.8540797080000000e+00 4.3679153330000000e+00 0 0 0
24 3 1 5.2999999999999999e-02 2.2394495310000000e+00 2.9341965249999999e+00 4.9324120180000000e+00 0 0 0
25 3 2 -1.5900000000000000e-01 2.3338016320000001e+00 5.1270821099999999e+00 5.1010968700000001e+00 0 0 0
26 3 1 5.2999999999999999e-02 1.9413935720000000e+00 5.1263099920000004e+00 -2.8736179599999998e+00 0 0 1
27 3 1 5.2999999999999999e-02 1.9504943360000000e+00 6.0477702239999998e+00 4.5488820480000003e+00 0 0 0
28 3 1 5.2999999999999999e-02 3.4731716060000002e+00 5.1502860860000004e+00 5.1285472470000002e+00 0 0 0
29 4 4 -1.0600000000000000e-01 2.4896473110000001e+00 3.8398580849999999e+00 2.9596489400000001e+00 0 0 0
30 4 3 -5.2999999999999999e-02 1.4793895239999999e+00 4.4954156760000004e+00 2.0027929069999999e+00 0 0 0
31 4 1 5.2999999999999999e-02 3.4536200810000000e+00 4.4481860490000003e+00 2.9442628200000001e+00 0 0 0
32 4 1 5.2999999999999999e-02 2.7088808830000000e+00 2.7658797530000001e+00 2.6471985210000000e+00 0 0 0
34 4 2 -1.5900000000000000e-01 2.0528783019999999e+00 4.5348108790000001e+00 5.7462182900000003e-01 0 0 0
35 4 1 5.2999999999999999e-02 3.0136279120000000e+00 5.1483754929999996e+00 5.6822382299999996e-01 0 0 0
36 4 1 5.2999999999999999e-02 1.2916735589999999e+00 5.0103941890000003e+00 -1.2806917200000001e-01 0 0 0
37 4 1 5.2999999999999999e-02 2.2783418050000002e+00 3.4712960260000001e+00 2.3087409600000000e-01 0 0 0
38 5 4 -1.0600000000000000e-01 1.1736843459999999e+00 5.9212618839999998e+00 2.4915762830000001e+00 0 0 0
41 5 1 5.2999999999999999e-02 7.4587290500000003e-01 5.8867203420000003e+00 3.5477172640000001e+00 0 0 0
42 5 1 5.2999999999999999e-02 3.3321957169999998e+00 6.0442114240000002e+00 2.7741191710000002e+00 0 0 0
19 2 1 5.2999999999999999e-02 1.7471437930000000e+00 1.0334033948000000e+01 3.8286986719999998e+00 0 -1 0
39 5 3 -5.2999999999999999e-02 2.4814090350000000e+00 6.7309183389999996e+00 2.4512129850000002e+00 0 0 0
43 5 2 -1.5900000000000000e-01 2.3536098790000000e+00 7.9103109560000000e+00 3.4343826489999998e+00 0 0 0
44 5 1 5.2999999999999999e-02 2.1494662230000001e+00 7.5003643420000001e+00 4.4785072990000003e+00 0 0 0
45 5 1 5.2999999999999999e-02 1.4839120900000000e+00 8.5739851369999993e+00 3.1139494900000000e+00 0 0 0
46 5 1 5.2999999999999999e-02 3.3097075629999999e+00 8.5267333999999995e+00 3.4562345080000001e+00 0 0 0
47 6 4 -1.0600000000000000e-01 2.7140970420000001e+00 7.1978866469999998e+00 1.0007460070000000e+00 0 0 0
48 6 3 -5.2999999999999999e-02 3.0330989819999998e+00 8.7020407639999995e+00 8.9107818999999999e-01 0 0 0
49 6 1 5.2999999999999999e-02 3.6207313440000002e+00 6.6414955899999999e+00 5.9058545100000004e-01 0 0 0
50 6 1 5.2999999999999999e-02 1.8014516279999999e+00 6.9332968060000004e+00 3.7086919099999999e-01 0 0 0
51 6 1 5.2999999999999999e-02 2.3041106689999999e+00 9.2707682049999995e+00 1.5574995530000000e+00 0 0 0
52 6 2 -1.5900000000000000e-01 2.9058352350000001e+00 9.1986895390000001e+00 -5.6101784700000001e-01 0 0 0
53 6 1 5.2999999999999999e-02 1.8297374239999999e+00 9.0661674090000002e+00 -9.0843520799999999e-01 0 0 0
54 6 1 5.2999999999999999e-02 3.6052340450000000e+00 8.5982490919999996e+00 -1.2314846749999999e+00 0 0 0
55 6 1 5.2999999999999999e-02 3.1738936830000002e+00 1.0302080480000001e+01 -6.2879661799999997e-01 0 0 0
69 8 1 5.2999999999999999e-02 3.5437509290000002e+00 7.3694044539999997e+00 -8.1364262600000004e-01 0 0 0
77 9 1 5.2999999999999999e-02 2.8983701810000002e+00 7.6229625539999999e+00 -3.0705798110000000e+00 0 0 0
83 9 1 5.2999999999999999e-02 2.8235476570000002e+00 9.9378583020000004e+00 -2.9140057279999998e+00 0 0 0
1 1 1 5.2999999999999999e-02 4.7406686469999997e+00 4.4749949469999999e+00 3.4951114230000000e+00 -1 0 0
2 1 2 -1.5900000000000000e-01 5.2718900059999996e+00 3.4986508070000002e+00 3.7482016150000002e+00 -1 0 0
3 1 3 -5.2999999999999999e-02 6.7404671260000004e+00 3.5816252010000000e+00 3.2954756829999998e+00 -1 0 0
4 1 1 5.2999999999999999e-02 5.2358109190000004e+00 3.3233684320000001e+00 4.8744165979999998e+00 -1 0 0
5 1 1 5.2999999999999999e-02 4.7583025909999996e+00 2.6338365270000001e+00 3.2117373190000000e+00 -1 0 0
8 1 1 5.2999999999999999e-02 6.2788045490000002e+00 4.7863886029999998e+00 1.5144725130000001e+00 -1 0 0
9 1 1 5.2999999999999999e-02 6.2892471619999997e+00 2.9451535889999998e+00 1.2394540500000000e+00 -1 0 0
72 8 1 5.2999999999999999e-02 4.3452155850000000e+00 5.4093195480000000e+00 -2.2054181669999999e+00 0 0 0
73 8 1 5.2999999999999999e-02 5.4497884530000000e+00 5.7044248250000003e+00 -7.3365477899999998e-01 0 0 0
82 9 1 5.2999999999999999e-02 4.6147094500000003e+00 2.2674603549999999e+00 4.9817129250000001e+00 0 1 -1
56 7 4 -1.0600000000000000e-01 4.4666576050000000e+00 8.8941957309999999e+00 1.4226864170000000e+00 0 0 0
57 7 3 -5.2999999999999999e-02 5.5140415520000001e+00 8.0584327929999997e+00 6.6157287200000003e-01 0 0 0
58 7 1 5.2999999999999999e-02 4.7563879870000001e+00 9.9878738560000002e+00 1.2813452580000000e+00 0 0 0
59 7 1 5.2999999999999999e-02 4.4913120449999999e+00 8.6476229080000007e+00 2.5353110249999999e+00 0 0 0
60 7 1 5.2999999999999999e-02 5.2453317310000003e+00 6.9558091649999998e+00 7.6929186299999996e-01 0 0 0
65 8 4 -1.0600000000000000e-01 5.4248148059999997e+00 8.4540752189999999e+00 -8.2232437500000000e-01 0 0 0
66 8 3 -5.2999999999999999e-02 4.4374076240000004e+00 7.4928043410000003e+00 -1.5105264270000001e+00 0 0 0
67 8 1 5.2999999999999999e-02 5.0264010160000003e+00 9.5182801739999991e+00 -9.1282439500000001e-01 0 0 0
68 8 1 5.2999999999999999e-02 6.4627877150000002e+00 8.3983596019999993e+00 -1.2837115299999999e+00 0 0 0
70 8 2 -1.5900000000000000e-01 5.0997227230000002e+00 6.1225828729999998e+00 -1.7348497960000000e+00 0 0 0
71 8 1 5.2999999999999999e-02 5.9935070300000000e+00 6.2459413550000003e+00 -2.4316265700000002e+00 0 0 0
74 9 4 -1.0600000000000000e-01 3.9361250640000001e+00 8.0449353499999994e+00 -2.8589647120000001e+00 0 0 0
75 9 4 -1.0600000000000000e-01 3.9081311250000002e+00 9.5865941200000009e+00 -2.8999441359999998e+00 0 0 0
76 9 1 5.2999999999999999e-02 4.6514745350000002e+00 7.7006132029999996e+00 5.3656943669999997e+00 0 0 -1
78 9 1 5.2999999999999999e-02 4.4144062000000002e+00 9.9754590640000007e+00 -1.9554537869999999e+00 0 0 0
79 9 2 -1.5900000000000000e-01 4.6306150900000000e+00 1.0172352819000000e+01 4.9161343280000001e+00 0 0 -1
80 9 1 5.2999999999999999e-02 4.0905745209999997e+00 9.8534797140000006e+00 3.9660348740000000e+00 0 0 -1
81 9 1 5.2999999999999999e-02 5.7101689240000004e+00 9.8071225779999995e+00 4.8941289870000002e+00 0 0 -1

Velocities

6 0.0000000000000000e+00 0.0000000000000000e+00 0.0000000000000000e+00
7 0.0000000000000000e+00 0.0000000000000000e+00 0.0000000000000000e+00
10 0.0000000000000000e+00 0.0000000000000000e+00 0.0000000000000000e+00
11 0.0000000000000000e+00 0.0000000000000000e+00 0.0000000000000000e+00
12 0.0000000000000000e+00 0.0000000000000000e+00 0.0000000000000000e+00
13 0.0000000000000000e+00 0.0000000000000000e+00 0.0000000000000000e+00
15 0.0000000000000000e+00 0.0000000000000000e+00 0.0000000000000000e+00
20 0.0000000000000000e+00 0.0000000000000000e+00 0.0000000000000000e+00
22 0.0000000000000000e+00 0.0000000000000000e+00 0.0000000000000000e+00
23 0.0000000000000000e+00 0.0000000000000000e+00 0.0000000000000000e+00
33 0.0000000000000000e+00 0.0000000000000000e+00 0.0000000000000000e+00
14 0.0000000000000000e+00 0.0000000000000000e+00 0.0000000000000000e+00
16 0.0000000000000000e+00 0.0000000000000000e+00 0.0000000000000000e+00
17 0.0000000000000000e+00 0.0000000000000000e+00 0.0000000000000000e+00
18 0.0000000000000000e+00 0.0000000000000000e+00 0.0000000000000000e+00
40 0.0000000000000000e+00 0.0000000000000000e+00 0.0000000000000000e+00
61 0.0000000000000000e+00 0.0000000000000000e+00 0.0000000000000000e+00
62 0.0000000000000000e+00 0.0000000000000000e+00 0.0000000000000000e+00
63 0.0000000000000000e+00 0.0000000000000000e+00 0.0000000000000000e+00
64 0.0000000000000000e+00 0.0000000000000000e+00 0.0000000000000000e+00
21 0.0000000000000000e+00 0.0000000000000000e+00 0.0000000000000000e+00
24 0.0000000000000000e+00 0.0000000000000000e+00 0.0000000000000000e+00
25 0.0000000000000000e+00 0.0000000000000000e+00 0.0000000000000000e+00
26 0.0000000000000000e+00 0.0000000000000000e+00 0.0000000000000000e+00
27 0.0000000000000000e+00 0.0000000000000000e+00 0.0000000000000000e+00
28 0.0000000000000000e+00 0.0000000000000000e+00 0.0000000000000000e+00
29 0.0000000000000000e+00 0.0000000000000000e+00 0.0000000000000000e+00
30 0.0000000000000000e+00 0.0000000000000000e+00 0.0000000000000000e+00
31 0.0000000000000000e+00 0.0000000000000000e+00 0.0000000000000000e+00
32 0.0000000000000000e+00 0.0000000000000000e+00 0.0000000000000000e+00
34 0.0000000000000000e+00 0.0000000000000000e+00 0.0000000000000000e+00
35 0.0000000000000000e+00 0.0000000000000000e+00 0.0000000000000000e+00
36 0.0000000000000000e+00 0.0000000000000000e+00 0.0000000000000000e+00
37 0.0000000000000000e+00 0.0000000000000000e+00 0.0000000000000000e+00
38 0.0000000000000000e+00 0.0000000000000000e+00 0.0000000000000000e+00
41 0.0000000000000000e+00 0.0000000000000000e+00 0.0000000000000000e+00
42 0.0000000000000000e+00 0.0000000000000000e+00 0.0000000000000000e+00
19 0.0000000000000000e+00 0.0000000000000000e+00 0.0000000000000000e+00
39 0.0000000000000000e+00 0.0000000000000000e+00 0.0000000000000000e+00
43 0.0000000000000000e+00 0.0000000000000000e+00 0.0000000000000000e+00
44 0.0000000000000000e+00 0.0000000000000000e+00 0.0000000000000000e+00
45 0.0000000000000000e+00 0.0000000000000000e+00 0.0000000000000000e+00
46 0.0000000000000000e+00 0.0000000000000000e+00 0.0000000000000000e+00
47 0.0000000000000000e+00 0.0000000000000000e+00 0.0000000000000000e+00
48 0.0000000000000000e+00 0.0000000000000000e+00 0.0000000000000000e+00
49 0.0000000000000000e+00 0.0000000000000000e+00 0.0000000000000000e+00
50 0.0000000000000000e+00 0.0000000000000000e+00 0.0000000000000000e+00
51 0.0000000000000000e+00 0.0000000000000000e+00 0.0000000000000000e+00
52 0.0000000000000000e+00 0.0000000000000000e+00 0.0000000000000000e+00
53 0.0000000000000000e+00 0.0000000000000000e+00 0.0000000000000000e+00
54 0.0000000000000000e+00 0.0000000000000000e+00 0.0000000000000000e+00
55 0.0000000000000000e+00 0.0000000000000000e+00 0.0000000000000000e+00
69 0.0000000000000000e+00 0.0000000000000000e+00 0.0000000000000000e+00
77 0.0000000000000000e+00 0.0000000000000000e+00 0.0000000000000000e+00
83 0.0000000000000000e+00 0.0000000000000000e+00 0.0000000000000000e+00
1 0.0000000000000000e+00 0.0000000000000000e+00 0.0000000000000000e+00
2 0.0000000000000000e+00 0.0000000000000000e+00 0.0000000000000000e+00
3 0.0000000000000000e+00 0.0000000000000000e+00 0.0000000000000000e+00
4 0.0000000000000000e+00 0.0000000000000000e+00 0.0000000000000000e+00
5 0.0000000000000000e+00 0.0000000000000000e+00 0.0000000000000000e+00
8 0.0000000000000000e+00 0.0000000000000000e+00 0.0000000000000000e+00
9 0.0000000000000000e+00 0.0000000000000000e+00 0.0000000000000000e+00
72 0.0000000000000000e+00 0.0000000000000000e+00 0.0000000000000000e+00
73 0.0000000000000000e+00 0.0000000000000000e+00 0.0000000000000000e+00
82 0.0000000000000000e+00 0.0000000000000000e+00 0.0000000000000000e+00
56 0.0000000000000000e+00 0.0000000000000000e+00 0.0000000000000000e+00
57 0.0000000000000000e+00 0.0000000000000000e+00 0.0000000000000000e+00
58 0.0000000000000000e+00 0.0000000000000000e+00 0.0000000000000000e+00
59 0.0000000000000000e+00 0.0000000000000000e+00 0.0000000000000000e+00
60 0.0000000000000000e+00 0.0000000000000000e+00 0.0000000000000000e+00
65 0.0000000000000000e+00 0.0000000000000000e+00 0.0000000000000000e+00
66 0.0000000000000000e+00 0.0000000000000000e+00 0.0000000000000000e+00
67 0.0000000000000000e+00 0.0000000000000000e+00 0.0000000000000000e+00
68 0.0000000000000000e+00 0.0000000000000000e+00 0.0000000000000000e+00
70 0.0000000000000000e+00 0.0000000000000000e+00 0.0000000000000000e+00
71 0.0000000000000000e+00 0.0000000000000000e+00 0.0000000000000000e+00
74 0.0000000000000000e+00 0.0000000000000000e+00 0.0000000000000000e+00
75 0.0000000000000000e+00 0.0000000000000000e+00 0.0000000000000000e+00
76 0.0000000000000000e+00 0.0000000000000000e+00 0.0000000000000000e+00
78 0.0000000000000000e+00 0.0000000000000000e+00 0.0000000000000000e+00
79 0.0000000000000000e+00 0.0000000000000000e+00 0.0000000000000000e+00
80 0.0000000000000000e+00 0.0000000000000000e+00 0.0000000000000000e+00
81 0.0000000000000000e+00 0.0000000000000000e+00 0.0000000000000000e+00

Bonds

1 3 6 3
2 2 7 3
3 1 10 7
4 4 12 11
5 4 12 20
6 5 13 11
7 3 15 12
8 5 22 20
9 5 23 20
10 3 33 30
11 5 14 11
12 2 16 12
13 1 17 16
14 1 18 16
15 5 40 38
16 2 61 57
17 1 62 61
18 1 63 61
19 1 64 61
20 4 21 20
21 4 21 29
22 3 24 21
23 2 25 21
24 1 26 25
25 1 27 25
26 1 28 25
27 4 30 29
28 4 30 38
29 5 31 29
30 5 32 29
31 2 34 30
32 1 35 34
33 1 36 34
34 1 37 34
35 5 41 38
36 3 42 39
37 1 19 16
38 4 39 38
39 4 39 47
40 2 43 39
41 1 44 43
42 1 45 43
43 1 46 43
44 4 48 47
45 4 48 56
46 5 49 47
47 5 50 47
48 3 51 48
49 2 52 48
50 1 53 52
51 1 54 52
52 1 55 52
53 3 69 66
54 5 77 74
55 5 83 75
56 1 1 2
57 2 2 3
58 4 3 11
59 1 4 2
60 1 5 2
61 1 8 7
62 1 9 7
63 1 72 70
64 1 73 70
65 1 82 79
66 4 57 56
67 4 57 65
68 5 58 56
69 5 59 56
70 3 60 57
71 4 66 65
72 4 66 74
73 5 67 65
74 5 68 65
75 2 70 66
76 1 71 70
77 6 74 75
78 5 76 74
79 5 78 75
80 7 79 75
81 1 80 79
82 1 81 79

Angles

1 1 10 7 3
2 2 10 7 8
3 2 10 7 9
4 1 8 7 3
5 1 9 7 3
6 2 8 7 9
7 7 13 11 12
8 7 14 11 12
9 8 12 11 3
10 9 13 11 14
11 7 13 11 3
12 7 14 11 3
13 6 15 12 11
14 5 16 12 11
15 10 11 12 20
16 3 15 12 16
17 6 15 12 20
18 5 16 12 20
19 7 22 20 21
20 7 23 20 21
21 8 21 20 12
22 9 22 20 23
23 7 22 20 12
24 7 23 20 12
25 1 19 16 12
26 2 19 16 17
27 2 19 16 18
28 1 17 16 12
29 1 18 16 12
30 2 17 16 18
31 1 64 61 57
32 2 64 61 62
33 2 64 61 63
34 1 62 61 57
35 1 63 61 57
36 2 62 61 63
37 6 24 21 20
38 5 25 21 20
39 10 20 21 29
40 3 24 21 25
41 6 24 21 29
42 5 25 21 29
43 1 28 25 21
44 2 28 25 26
45 2 28 25 27
46 1 26 25 21
47 1 27 25 21
48 2 26 25 27
49 7 31 29 30
50 7 32 29 30
51 8 30 29 21
52 9 31 29 32
53 7 31 29 21
54 7 32 29 21
55 6 33 30 29
56 5 34 30 29
57 10 29 30 38
58 3 33 30 34
59 6 33 30 38
60 5 34 30 38
61 1 37 34 30
62 2 37 34 35
63 2 37 34 36
64 1 35 34 30
65 1 36 34 30
66 2 35 34 36
67 7 40 38 39
68 7 41 38 39
69 8 39 38 30
70 9 40 38 41
71 7 40 38 30
72 7 41 38 30
73 6 42 39 38
74 5 43 39 38
75 10 38 39 47
76 3 42 39 43
77 6 42 39 47
78 5 43 39 47
79 1 46 43 39
80 2 46 43 44
81 2 46 43 45
82 1 44 43 39
83 1 45 43 39
84 2 44 43 45
85 7 49 47 48
86 7 50 47 48
87 8 48 47 39
88 9 49 47 50
89 7 49 47 39
90 7 50 47 39
91 6 51 48 47
92 5 52 48 47
93 10 47 48 56
94 3 51 48 52
95 6 51 48 56
96 5 52 48 56
97 1 55 52 48
98 2 55 52 53
99 2 55 52 54
100 1 53 52 48
101 1 54 52 48
102 2 53 52 54
103 1 1 2 3
104 2 1 2 4
105 2 1 2 5
106 1 4 2 3
107 1 5 2 3
108 2 4 2 5
109 3 6 3 2
110 4 2 3 7
111 5 2 3 11
112 3 6 3 7
113 6 6 3 11
114 5 7 3 11
115 7 58 56 57
116 7 59 56 57
117 8 57 56 48
118 9 58 56 59
119 7 58 56 48
120 7 59 56 48
121 6 60 57 56
122 5 61 57 56
123 10 56 57 65
124 3 60 57 61
125 6 60 57 65
126 5 61 57 65
127 7 67 65 66
128 7 68 65 66
129 8 66 65 57
130 9 67 65 68
131 7 67 65 57
132 7 68 65 57
133 6 69 66 65
134 5 70 66 65
135 10 65 66 74
136 3 69 66 70
137 6 69 66 74
138 5 70 66 74
139 1 73 70 66
140 2 73 70 71
141 2 73 70 72
142 1 71 70 66
143 1 72 70 66
144 2 71 70 72
145 11 76 74 75
146 11 77 74 75
147 12 66 74 75
148 9 76 74 77
149 7 76 74 66
150 7 77 74 66
151 11 78 75 74
152 13 79 75 74
153 11 83 75 74
154 14 78 75 79
155 9 78 75 83
156 14 83 75 79
157 15 82 79 75
158 2 82 79 80
159 2 82 79 81
160 15 80 79 75
161 15 81 79 75
162 2 80 79 81

Dihedrals

1 2 10 7 3 2
2 2 8 7 3 2
3 2 9 7 3 2
4 1 10 7 3 6
5 1 8 7 3 6
6 1 9 7 3 6
7 3 10 7 3 11
8 3 8 7 3 11
9 3 9 7 3 11
10 7 15 12 11 13
11 5 16 12 11 13
12 8 20 12 11 13
13 7 15 12 11 14
14 5 16 12 11 14
15 8 20 12 11 14
16 6 15 12 11 3
17 4 16 12 11 3
18 9 20 12 11 3
19 9 11 12 20 21
20 8 11 12 20 22
21 8 11 12 20 23
22 6 15 12 20 21
23 7 15 12 20 22
24 7 15 12 20 23
25 4 16 12 20 21
26 5 16 12 20 22
27 5 16 12 20 23
28 3 19 16 12 11
29 3 17 16 12 11
30 3 18 16 12 11
31 1 19 16 12 15
32 1 17 16 12 15
33 1 18 16 12 15
34 3 19 16 12 20
35 3 17 16 12 20
36 3 18 16 12 20
37 3 64 61 57 56
38 3 62 61 57 56
39 3 63 61 57 56
40 1 64 61 57 60
41 1 62 61 57 60
42 1 63 61 57 60
43 3 64 61 57 65
44 3 62 61 57 65
45 3 63 61 57 65
46 7 24 21 20 22
47 5 25 21 20 22
48 8 29 21 20 22
49 7 24 21 20 23
50 5 25 21 20 23
51 8 29 21 20 23
52 6 24 21 20 12
53 4 25 21 20 12
54 9 29 21 20 12
55 9 20 21 29 30
56 8 20 21 29 31
57 8 20 21 29 32
58 6 24 21 29 30
59 7 24 21 29 31
60 7 24 21 29 32
61 4 25 21 29 30
62 5 25 21 29 31
63 5 25 21 29 32
64 3 28 25 21 20
65 3 26 25 21 20
66 3 27 25 21 20
67 1 28 25 21 24
68 1 26 25 21 24
69 1 27 25 21 24
70 3 28 25 21 29
71 3 26 25 21 29
72 3 27 25 21 29
73 7 33 30 29 31
74 5 34 30 29 31
75 8 38 30 29 31
76 7 33 30 29 32
77 5 34 30 29 32
78 8 38 30 29 32
79 6 33 30 29 21
80 4 34 30 29 21
81 9 38 30 29 21
82 9 29 30 38 39
83 8 29 30 38 40
84 8 29 30 38 41
85 6 33 30 38 39
86 7 33 30 38 40
87 7 33 30 38 41
88 4 34 30 38 39
89 5 34 30 38 40
90 5 34 30 38 41
91 3 37 34 30 29
92 3 35 34 30 29
93 3 36 34 30 29
94 1 37 34 30 33
95 1 35 34 30 33
96 1 36 34 30 33
97 3 37 34 30 38
98 3 35 34 30 38
99 3 36 34 30 38
100 7 42 39 38 40
101 5 43 39 38 40
102 8 47 39 38 40
103 7 42 39 38 41
104 5 43 39 38 41
105 8 47 39 38 41
106 6 42 39 38 30
107 4 43 39 38 30
108 9 47 39 38 30
109 9 38 39 47 48
110 8 38 39 47 49
111 8 38 39 47 50
112 6 42 39 47 48
113 7 42 39 47 49
114 7 42 39 47 50
115 4 43 39 47 48
116 5 43 39 47 49
117 5 43 39 47 50
118 3 46 43 39 38
119 3 44 43 39 38
120 3 45 43 39 38
121 1 46 43 39 42
122 1 44 43 39 42
123 1 45 43 39 42
124 3 46 43 39 47
125 3 44 43 39 47
126 3 45 43 39 47
127 7 51 48 47 49
128 5 52 48 47 49
129 8 56 48 47 49
130 7 51 48 47 50
131 5 52 48 47 50
132 8 56 48 47 50
133 6 51 48 47 39
134 4 52 48 47 39
135 9 56 48 47 39
136 9 47 48 56 57
137 8 47 48 56 58
138 8 47 48 56 59
139 6 51 48 56 57
140 7 51 48 56 58
141 7 51 48 56 59
142 4 52 48 56 57
143 5 52 48 56 58
144 5 52 48 56 59
145 3 55 52 48 47
146 3 53 52 48 47
147 3 54 52 48 47
148 1 55 52 48 51
149 1 53 52 48 51
150 1 54 52 48 51
151 3 55 52 48 56
152 3 53 52 48 56
153 3 54 52 48 56
154 1 1 2 3 6
155 2 1 2 3 7
156 3 1 2 3 11
157 1 4 2 3 6
158 2 4 2 3 7
159 3 4 2 3 11
160 1 5 2 3 6
161 2 5 2 3 7
162 3 5 2 3 11
163 4 2 3 11 12
164 5 2 3 11 13
165 5 2 3 11 14
166 6 6 3 11 12
167 7 6 3 11 13
168 7 6 3 11 14
169 4 7 3 11 12
170 5 7 3 11 13
171 5 7 3 11 14
172 7 60 57 56 58
173 5 61 57 56 58
174 8 65 57 56 58
175 7 60 57 56 59
176 5 61 57 56 59
177 8 65 57 56 59
178 6 60 57 56 48
179 4 61 57 56 48
180 9 65 57 56 48
181 9 56 57 65 66
182 8 56 57 65 67
183 8 56 57 65 68
184 6 60 57 65 66
185 7 60 57 65 67
186 7 60 57 65 68
187 4 61 57 65 66
188 5 61 57 65 67
189 5 61 57 65 68
190 7 69 66 65 67
191 5 70 66 65 67
192 8 74 66 65 67
193 7 69 66 65 68
194 5 70 66 65 68
195 8 74 66 65 68
196 6 69 66 65 57
197 4 70 66 65 57
198 9 74 66 65 57
199 10 65 66 74 75
200 8 65 66 74 76
201 8 65 66 74 77
202 11 69 66 74 75
203 7 69 66 74 76
204 7 69 66 74 77
205 12 70 66 74 75
206 5 70 66 74 76
207 5 70 66 74 77
208 3 73 70 66 65
209 3 71 70 66 65
210 3 72 70 66 65
211 1 73 70 66 69
212 1 71 70 66 69
213 1 72 70 66 69
214 3 73 70 66 74
215 3 71 70 66 74
216 3 72 70 66 74
217 13 76 74 75 78
218 14 76 74 75 79
219 13 76 74 75 83
220 13 77 74 75 78
221 14 77 74 75 79
222 13 77 74 75 83
223 15 78 75 74 66
224 16 79 75 74 66
225 15 83 75 74 66
226 17 82 79 75 74
227 17 80 79 75 74
228 17 81 79 75 74
229 18 82 79 75 78
230 18 80 79 75 78
231 18 81 79 75 78
232 18 82 79 75 83
233 18 80 79 75 83
234 18 81 79 75 83

Impropers

1 1 10 7 8 3
2 1 10 7 9 3
3 2 10 7 8 9
4 1 8 7 9 3
5 6 13 11 14 12
6 7 13 11 12 3
7 7 14 11 12 3
8 6 13 11 14 3
9 4 15 12 16 11
10 8 15 12 11 20
11 9 16 12 11 20
12 4 15 12 16 20
13 6 22 20 23 21
14 7 22 20 21 12
15 7 23 20 21 12
16 6 22 20 23 12
17 1 19 16 17 12
18 1 19 16 18 12
19 2 19 16 17 18
20 1 17 16 18 12
21 1 64 61 62 57
22 1 64 61 63 57
23 2 64 61 62 63
24 1 62 61 63 57
25 4 24 21 25 20
26 8 24 21 20 29
27 9 25 21 20 29
28 4 24 21 25 29
29 1 28 25 26 21
30 1 28 25 27 21
31 2 28 25 26 27
32 1 26 25 27 21
33 6 31 29 32 30
34 7 31 29 30 21
35 7 32 29 30 21
36 6 31 29 32 21
37 4 33 30 34 29
38 8 33 30 29 38
39 9 34 30 29 38
40 4 33 30 34 38
41 1 37 34 35 30
42 1 37 34 36 30
43 2 37 34 35 36
44 1 35 34 36 30
45 6 40 38 41 39
46 7 40 38 39 30
47 7 41 38 39 30
48 6 40 38 41 30
49 4 42 39 43 38
50 8 42 39 38 47
51 9 43 39 38 47
52 4 42 39 43 47
53 1 46 43 44 39
54 1 46 43 45 39
55 2 46 43 44 45
56 1 44 43 45 39
57 6 49 47 50 48
58 7 49 47 48 39
59 7 50 47 48 39
60 6 49 47 50 39
61 4 51 48 52 47
62 8 51 48 47 56
63 9 52 48 47 56
64 4 51 48 52 56
65 1 55 52 53 48
66 1 55 52 54 48
67 2 55 52 53 54
68 1 53 52 54 48
69 1 1 2 4 3
70 1 1 2 5 3
71 2 1 2 4 5
72 1 4 2 5 3
73 3 6 3 2 7
74 4 6 3 2 11
75 5 2 3 7 11
76 4 6 3 7 11
77 6 58 56 59 57
78 7 58 56 57 48
79 7 59 56 57 48
80 6 58 56 59 48
81 4 60 57 61 56
82 8 60 57 56 65
83 9 61 57 56 65
84 4 60 57 61 65
85 6 67 65 68 66
86 7 67 65 66 57