LAMMPS data file via write_data, version 29 Sep 2021, timestep = 5000000

12050 atoms
3 atom types
12025 bonds
4 bond types
24000 angles
7 angle types
35775 dihedrals
7 dihedral types
16000 impropers
6 improper types

0.5268909045956747 48.397159787403766 xlo xhi
0.5367909181809267 48.18242171981218 ylo yhi
-2.557456008043559 51.328527328044814 zlo zhi

Masses

1 1.00797
2 12.01115
3 12.01115

Atoms # full

1950 324 1 0.053 4.173895851870246 3.1313348151141205 7.271289216736793 0 0 0
1973 328 3 -0.106 2.4089737834310716 10.019914260567848 -1.4008956112925182 0 0 0
1951 324 1 0.053 2.5757248891870113 2.3628232199220065 7.143862603431419 0 0 0
1972 328 3 -0.106 3.4252922341948104 9.094936509621194 -0.5757660888967087 0 0 0
7354 1221 1 0.053 8.073782817991308 4.07778678302261 5.477042982085534 0 0 1
5205 864 1 0.053 6.892305860184353 8.85556258995028 -0.7621896084940105 0 0 0
5549 921 1 0.053 3.5955207894783663 12.11845458354489 5.626873656794286 1 0 0
7363 1222 1 0.053 7.79554321872041 8.295431380965816 6.429421488898486 0 1 1
5203 864 1 0.053 8.419442703266814 11.515467220413663 -1.51442132627306 0 0 0
1958 325 1 0.053 1.9719569896612628 6.8220622132855855 5.25358832976979 0 0 0
7364 1223 3 -0.106 5.898562549513625 8.353005584729985 7.335591256166451 0 0 1
7338 1218 1 0.053 11.660873544617875 3.646838860379075 -0.20936103590875454 0 1 1
5223 867 1 0.053 11.479855427084248 11.780105456631917 4.041498409139096 0 0 1
1965 326 1 0.053 2.2635212111255596 7.949455898971418 3.2107841213446777 0 0 0
1962 326 1 0.053 3.4662778368857157 5.2445516150506695 3.1567830038329117 0 0 0
7352 1221 3 -0.106 7.767558130855998 4.438865462665336 4.551538643372249 0 0 1
5227 868 1 0.053 11.749092082107651 10.562983708041301 6.813025395851447 0 0 1
9656 1603 1 0.053 8.781949950940854 1.1811109330241898 5.99269749217396 1 1 0
5216 866 1 0.053 8.480798775486093 11.078755610736621 3.7157793802279775 0 0 1
7357 1221 1 0.053 8.584889913370114 6.4136437690909505 4.911870333374531 0 1 1
5200 864 3 -0.106 7.915257247910045 10.56449150893936 -1.7988924612676984 0 0 0
7355 1221 1 0.053 6.8132956005456435 3.9650184452598047 4.210568461198897 0 0 1
820 137 3 -0.106 7.789830062042106 1.8483274989762706 -2.1583202430784474 0 1 1
4454 740 3 -0.106 2.597846361751372 2.8770931174094803 0.9103357303488844 0 1 1
4461 741 3 -0.106 1.8054448818958366 5.375513612566444 -2.1457456617319615 0 1 1
1974 328 1 0.053 4.397183755617144 9.541220354909113 -0.6055486927119014 0 0 0
477 80 2 -0.159 12.039298017230166 12.319141165706252 -1.1604172327068634 0 0 1
1971 327 1 0.053 1.8625439706814815 8.644710434589246 0.9336571262599742 0 0 0
4455 740 3 -0.106 2.6708114224011266 3.8420894554890226 -0.3082077907725309 0 1 1
1956 325 1 0.053 3.2765626751168555 5.415596401156073 6.620678321320749 0 0 0
5536 919 1 0.053 8.77940165525944 11.577015129021541 7.072817985220722 1 0 0
7350 1220 1 0.053 9.830505568825853 3.9683581862446555 4.0195729899937405 0 1 1
7361 1222 1 0.053 5.741612890767526 5.977474271692038 5.860232416813563 0 0 1
7344 1219 1 0.053 10.796999364457008 4.001244831193244 1.703982138275344 0 0 0
447 75 3 -0.106 11.06717316676083 4.950402630376237 7.501918138219006 0 0 1
825 137 1 0.053 8.592580164060994 1.1584701321033055 -0.18293835728851793 0 1 1
9657 1603 1 0.053 10.29316573019889 1.6571855354884157 6.434841780466826 1 1 0
1961 326 3 -0.106 2.758566711433355 7.138988579690848 2.7027638803792735 0 0 0
1949 324 3 -0.106 3.1569250063927 3.5986835953895735 5.447212902155663 0 0 0
5201 864 3 -0.106 7.238565974656976 9.935628386374821 -0.6128778303808347 0 0 0
4451 739 1 0.053 1.9017752339953518 1.4439369253529677 2.9240793417084037 0 1 1
7340 1219 3 -0.106 10.026748901739879 4.851474695804818 -0.1476060746577681 0 0 1
454 76 1 0.053 12.185959751284923 3.8927573973733622 5.9415933360549715 0 0 1
5220 867 1 0.053 10.891268706399703 9.310469201866105 3.9633155845419745 0 0 1
4452 739 1 0.053 0.6962128467428772 1.7771839436446077 0.650238747885894 0 1 1
4449 739 3 -0.106 1.7904954819792827 1.5322591109446315 0.7059594714482356 0 1 1
7362 1222 1 0.053 6.501313891733858 8.45896470678274 5.214522808969526 0 1 1
1954 325 3 -0.106 2.6038863900097535 4.934874840438068 5.8591652778192085 0 0 0
7369 1223 1 0.053 4.171598933812948 9.059343100302485 6.1941198214537945 0 1 1
7360 1222 1 0.053 7.268397769544055 5.98453813043961 6.772639901252685 0 0 1
457 76 1 0.053 10.865075844745379 5.889451225913549 4.840760611689376 0 0 1
7376 1225 3 -0.106 1.6817203724039504 9.878730839838227 6.808895081514596 0 1 1
5210 865 1 0.053 6.845051645032631 9.833776267541957 2.0887495693659233 0 0 0
479 80 1 0.053 11.52907266432213 10.871431774741117 0.3280630547689678 0 0 1
5217 866 1 0.053 9.79050594903156 10.742950388104699 2.4943909281998486 0 0 1
1968 327 1 0.053 4.611926688199868 8.12486539628566 2.1337093666757214 0 0 0
1966 327 3 -0.106 3.6626127082599083 7.821133966652069 1.616717224645848 0 0 0
7371 1224 3 -0.106 2.262260185401168 9.476804775025917 8.125279327150293 0 1 1
823 137 1 0.053 8.149997060148536 2.915637582615403 -2.1316634077241456 0 1 1
4458 740 1 0.053 2.934067514783808 3.2356505268428415 -1.272214110227224 0 1 1
7365 1223 3 -0.106 4.377994096041517 8.446858859836189 7.0541413122602155 0 1 1
5548 921 1 0.053 4.360212585600922 11.141168837357338 4.441663138960637 1 0 0
5209 865 1 0.053 8.928950016569148 9.014427267101917 0.10847699767204855 0 0 0
480 80 1 0.053 11.85800168497762 11.547894049611632 -1.8854543356773794 0 0 1
1944 323 1 0.053 5.190991673277005 0.6999125462330649 7.755879074818173 0 0 0
4460 741 3 -0.106 1.5312230791316828 4.744563074085769 -0.734405490118685 0 1 1
1953 324 1 0.053 2.4931393283083922 3.167612250084576 4.72308370292278 0 0 0
1943 323 3 -0.106 4.053343538989628 1.3403384409876686 6.014835972098947 0 0 0
7343 1219 1 0.053 10.473030690677861 5.869491230746381 0.11470075166481752 0 0 1
7346 1220 3 -0.106 8.820686253251937 4.666967188989509 2.2193949151257355 0 0 1
4448 739 3 -0.106 1.9358024865609351 0.7127934584871534 2.06580000620617 0 1 1
4456 740 1 0.053 3.6023204091220995 2.653818349722369 1.226381478616279 0 1 1
5219 867 3 -0.106 11.077423570187198 11.263153779649226 4.933243130212527 0 0 1
7334 1218 3 -0.106 11.718175257707827 4.6041317605778795 -2.126743524117132 0 1 1
7347 1220 3 -0.106 8.869203214359388 3.93245779624069 3.6173734608194135 0 0 1
7368 1223 1 0.053 3.954813865731099 7.412108792430686 6.866787269731601 0 1 1
7359 1222 3 -0.106 6.780557725747991 7.919482946226693 6.141116479956638 0 0 1
4463 741 1 0.053 0.5347510640662224 4.198509492535937 -0.6719395461430802 0 1 1
7353 1221 3 -0.106 7.582062606172608 5.999205674501875 4.727604346504895 0 0 1
5539 920 3 -0.106 6.279693458013016 12.118906510393792 6.392574368948008 1 0 0
1957 325 1 0.053 1.69100661304998 4.769467603106062 6.386882509830997 0 0 0
5202 864 1 0.053 8.656917768693997 9.876198543425327 -2.128595843987938 0 0 0
7378 1225 1 0.053 1.9439252560393516 10.814977261325986 6.345822299211999 0 1 1
829 138 1 0.053 5.591354069658044 0.907411280788979 -0.5709461317758893 0 1 1
7351 1220 1 0.053 8.737290604012378 2.7908686891564334 3.567058929358285 0 1 1
1959 325 1 0.053 1.2740817433133405 5.5548715093130365 4.318582104830461 0 0 0
1952 324 1 0.053 4.12368375847784 3.8273669139181443 4.914995094605292 0 0 0
5218 867 3 -0.106 10.26057831811983 10.02136446599591 4.4962757828974995 0 0 1
1967 327 3 -0.106 2.9666357229167417 8.924742836433635 0.8507804913004433 0 0 0
4462 741 1 0.053 1.4638061703048293 5.619952792713729 -0.09955875212662413 0 1 1
7345 1219 1 0.053 9.535616253796496 3.150554113431162 0.9524602176758035 0 0 1
1960 326 3 -0.106 3.2795440192295575 6.185141288252726 3.681081800129654 0 0 0
5208 865 1 0.053 8.631786381168245 10.73710962662473 0.6619840830493078 0 0 0
7348 1220 1 0.053 7.801027785318241 4.585490440300411 1.8684847686699122 0 0 1
1975 328 1 0.053 3.4660518316162725 8.155053584354754 -1.1202676499278965 0 0 0
7341 1219 3 -0.106 9.803898620961638 4.166404282722956 1.1736238934449887 0 0 1
5213 866 3 -0.106 9.266753894505204 10.352898114634726 3.359032594263744 0 0 1
1976 328 1 0.053 1.3034108871812846 9.804266454837046 -1.2672295838238588 0 0 0
449 75 1 0.053 10.318374449766747 6.914759654562136 7.336675025270635 0 0 1
7358 1222 3 -0.106 6.728538019234191 6.385381697488874 5.9063307879508375 0 0 1
5542 920 1 0.053 5.582785784969297 11.748437434343067 7.138656862459328 0 0 0
7379 1225 1 0.053 1.992730866272022 9.196189351039198 6.023112517622682 0 1 1
5545 921 3 -0.106 4.254343889939086 12.192755741408593 4.731381072154672 0 0 0
5211 865 1 0.053 7.146622151051466 8.161766212987565 1.6503719779184447 0 0 0
4457 740 1 0.053 2.1485972408487743 3.4754460068743698 1.764903359741739 0 1 1
5212 866 3 -0.106 8.631526750655299 9.002620512807122 2.9362105392342226 0 0 0
7342 1219 1 0.053 9.025914969278702 5.131379680066976 -0.6946490028267334 0 0 1
7356 1221 1 0.053 7.087114456527303 6.4005610052400606 3.789880780691055 0 1 1
1969 327 1 0.053 3.9668344628610823 7.0409974445207375 0.9358373440302281 0 0 0
5214 866 1 0.053 8.195803176003812 8.491614559466433 3.8282377670949863 0 0 0
824 137 1 0.053 7.297929911854341 2.3122677801723457 -0.07452265873640673 0 1 1
5224 868 3 -0.106 12.209640863580919 11.037744956507797 5.897254203993095 0 0 1
1955 325 3 -0.106 2.2155626439277594 5.876863013755625 4.726276012688768 0 0 0
5554 922 1 0.053 2.3776912708239166 11.383881597181404 3.1028946535861612 1 0 0
5204 864 1 0.053 6.442284189342802 10.590101621669795 -0.30173987076977493 0 0 0
7333 1217 1 0.053 12.013965562929373 6.513583328112827 -1.3696456619906239 0 1 1
4465 741 1 0.053 2.6638163616890806 6.088518827938474 -1.9620618499494373 0 1 1
7349 1220 1 0.053 9.055485241684398 5.718930699365749 2.4609207282651377 0 0 1
7339 1218 1 0.053 10.376578500734395 3.0105988547691975 -1.3110258887376334 0 1 1
7335 1218 3 -0.106 10.927543698512139 3.94414958145106 -0.9877303949346614 0 1 1
5222 867 1 0.053 10.357290169155634 12.010214839576081 5.281125665573657 0 0 1
1963 326 1 0.053 4.189802523147172 6.465342334614456 4.273683874014083 0 0 0
5215 866 1 0.053 9.361842961455038 8.246817401446355 2.610921518728831 0 0 0
1948 324 3 -0.106 3.4443784125593613 2.67971270964978 6.585823738838284 0 0 0
7366 1223 1 0.053 6.295803643526639 9.332023603617436 7.723179052960729 0 0 1
1977 328 1 0.053 2.462762436523783 10.966375500097 -0.948071654182562 0 0 0
1964 326 1 0.053 1.8683253418751244 6.559099425284284 2.2219000509882196 0 0 0
821 137 3 -0.106 7.66458417370623 1.4033822408849241 -0.7103824680617694 0 1 1
5221 867 1 0.053 9.724052162701806 9.63339219323834 5.39178550371013 0 0 1
450 75 1 0.053 10.122998066560434 4.476725827061264 7.161396626057982 0 0 1
5206 865 3 -0.106 8.18699515503427 9.741961192507123 0.4988797940029879 0 0 0
4459 740 1 0.053 3.5532049041312725 4.366810561484937 -0.024038730700416622 0 1 1
5207 865 3 -0.106 7.585151865451666 9.153242538137535 1.788636352168922 0 0 0
5543 920 1 0.053 6.8526414675389 11.251304022801595 5.938535527771881 1 0 0
1970 327 1 0.053 2.9967048804447884 9.892695215222554 1.4090610612989396 0 0 0
453 76 3 -0.106 11.975999626958327 5.8888217359724235 5.1312106752471545 0 0 1
452 76 3 -0.106 12.175555009742924 4.946963018673647 6.351553842951455 0 0 1
5533 919 3 -0.106 8.214379909557898 12.237038130364073 7.82428261424824 1 0 0
9662 1604 1 0.053 7.725742237129857 2.5163841532005593 8.063194007113804 1 1 0
476 80 3 -0.106 12.373288147799295 11.589631232161578 0.1306329189651234 0 0 1
462 77 1 0.053 11.452535508872709 6.702957333317766 2.744198220910601 0 0 1
4453 739 1 0.053 2.2483263440186168 0.8858722418143148 -0.008566163437216723 0 1 1
468 78 1 0.053 12.044281158137027 9.32558256360381 2.0914750357450167 0 0 1
9645 1601 1 0.053 10.765451122744087 0.671194927900352 1.613324860543873 1 1 0
456 76 1 0.053 12.062313073600064 7.012365900780484 5.386776620797728 0 0 1
446 75 3 -0.106 10.701470771075723 6.285932401715373 8.122226213794377 0 0 1
1947 323 1 0.053 5.004559710138227 1.5037596586594542 5.521608344273924 0 0 0
9647 1601 1 0.053 9.827617840833472 1.2281898878540587 3.8205990158547314 1 1 0
1946 323 1 0.053 3.2808246411875954 0.9786334002138408 5.331310829535655 0 0 0
9655 1603 3 -0.106 9.102964989452039 0.8579103950503616 8.122006039576252 1 1 0
8645 1435 1 0.053 0.715090751921696 1.6565108812687945 7.084206020424833 1 1 0
9654 1603 3 -0.106 9.564766498730748 0.8767380601929221 6.649467277067439 1 1 0
478 80 1 0.053 12.39544143646308 12.371133987900642 0.9144172507860691 0 0 1
469 78 1 0.053 12.463288514717627 8.158975451666816 0.8201507972015891 0 0 1
5565 924 1 0.053 0.7005244631437416 12.221134335833366 -0.47199112990196124 0 0 1
7367 1223 1 0.053 6.083295843038164 7.655575994896728 8.144397317803413 0 0 1
9683 1607 1 0.053 2.0462191326845813 7.037041877608793 10.874380950449494 1 1 0
7375 1224 1 0.053 1.9595688325025606 10.158224915843375 8.934917338317186 0 1 1
5864 974 3 -0.106 12.475725945515265 2.5627855562345183 16.739787991712962 0 0 1
5523 917 1 0.053 11.10867502120621 10.380290846383675 11.372508273308043 1 0 0
440 74 3 -0.106 9.4941171683315 7.61503062225803 9.896124285551595 0 0 1
9680 1607 1 0.053 4.240857697532937 6.790838195789016 12.054119982056225 1 1 0
451 75 1 0.053 11.556865319495463 4.295208869078014 8.2564904830876 0 0 1
5521 917 3 -0.106 12.384197116422229 12.053691381984677 10.782251123226999 1 0 0
1384 230 1 0.053 6.725723497165236 10.89286767469726 16.00976442801462 1 0 0
5484 911 3 -0.106 2.4674340617050845 7.863432273394923 17.211750972544717 1 0 0
3246 539 1 0.053 6.847149957670913 1.8548071042923624 17.76308773736946 0 1 0
8611 1430 3 -0.106 2.282634363692045 1.9317033870644458 17.227503056764643 1 1 0
3242 539 3 -0.106 7.743851439309451 3.8466214524265974 17.49250968028095 0 1 0
5858 973 3 -0.106 12.256636638153722 2.695786501487366 14.11690454605997 0 0 1
5862 973 1 0.053 10.96345416522185 3.813234957465209 15.483252062671529 0 0 1
5512 915 1 0.053 11.039135329413567 8.537185246330807 13.121536287738714 1 0 0
9668 1605 1 0.053 6.997995571242798 4.05790567476288 10.089035750244093 1 1 0
5492 912 1 0.053 4.470195286003554 7.5227532017402465 18.9955683848154 1 0 0
1646 274 3 -0.106 12.43891179925407 11.313261050999897 17.797711496491985 1 0 0
5491 912 3 -0.106 6.288808701331189 8.043254284077712 18.020704420354118 1 0 0
9678 1607 3 -0.106 3.641297701148832 5.880187926659289 11.931724484878664 1 1 0
5478 910 3 -0.106 1.7730042316221948 8.034430701910264 14.750377073046018 1 0 0
3243 539 3 -0.106 7.774356767285303 2.3123777565378614 17.480891197694493 0 1 0
5483 910 1 0.053 1.5789053806061568 9.618675569802244 16.27287566741958 1 0 0
5503 914 3 -0.106 11.065428509879112 7.856251661478348 16.124138364089795 1 0 0
3251 540 1 0.053 7.404701526028525 2.23918476516875 15.282843697991417 0 1 0
9688 1608 1 0.053 1.1281966940019537 5.47781670833924 8.582087875325623 1 1 0
429 72 3 -0.106 6.847578941516208 9.83675548764363 11.552603391449209 0 0 1
435 73 3 -0.106 8.299513646410364 7.756285598113607 10.812913065927063 0 0 1
424 71 1 0.053 5.562893141919942 11.903560350759596 9.544491236454833 0 0 1
439 73 1 0.053 7.4863106581012415 7.523294268796988 10.071425987237657 0 0 1
7372 1224 1 0.053 3.8013851915866947 8.538170013903619 9.245322382839174 0 1 1
5480 910 1 0.053 2.766352000854455 8.452058644618372 14.399723186973077 1 0 0
441 74 3 -0.106 9.68289896213959 6.229438013767778 9.30461462143665 0 0 1
430 72 1 0.053 7.664034059256865 11.876892330071849 11.563657900489664 0 0 1
5498 913 1 0.053 6.773269796857205 8.486065084031347 15.880473632643671 1 0 0
437 73 1 0.053 9.023157320986336 9.77255682045904 11.44437415201318 0 0 1
9673 1606 3 -0.106 4.592156559696537 4.753345360370634 11.55159530641015 1 1 0
5487 911 1 0.053 2.1292931561572357 7.994383789999356 18.251644485029384 1 0 0
5507 914 1 0.053 11.529077293566074 8.809908335992182 16.414746603869496 1 0 0
5486 911 1 0.053 2.3003455984925023 6.740745632794678 17.08133048688666 1 0 0
5473 909 3 -0.106 0.6273579858288505 8.415333234885093 13.76209866933219 1 0 0
5481 910 1 0.053 1.7994072649915194 6.937705487501424 14.652865250754434 1 0 0
3244 539 1 0.053 8.724429003664161 4.270193910156957 17.359953453291507 0 1 0
5865 974 3 -0.106 12.401816729816833 3.252577139464386 18.07003005967653 0 0 1
5479 910 3 -0.106 1.5186071688284122 8.495349354525452 16.193368876529078 1 0 0
5485 911 3 -0.106 3.937686715102367 8.155302583508767 16.99849863858193 1 0 0
1382 230 1 0.053 4.867914581762368 11.203960794230488 17.856446525239175 1 0 0
442 74 1 0.053 10.453579260314772 7.831449880742797 10.34779302930207 0 0 1
9670 1605 1 0.053 7.221546159251 2.926251720831564 13.010825306754718 1 1 0
445 74 1 0.053 9.95737151656654 5.537784790646872 10.183881431663218 0 0 1
5867 974 1 0.053 11.988718594391807 1.6082828355202126 16.675777702658706 0 0 1
3245 539 1 0.053 7.233280142846218 4.30110162490649 16.593796856013533 0 1 0
9685 1608 3 -0.106 0.5833768381475082 5.349331944550516 9.581769558656697 1 1 0
448 75 1 0.053 11.654999541475462 6.742753830154666 8.443279225785707 0 0 1
1649 274 1 0.053 11.817599325027956 12.21769171077312 17.390199401800896 1 0 0
432 72 1 0.053 6.138158793581628 9.303613134327394 12.189580619610263 0 0 1
9675 1606 1 0.053 5.421090196991911 4.43075162948087 13.548831810331464 1 1 0
7370 1224 3 -0.106 3.6952242569723506 9.114401169154668 8.28209187361272 0 1 1
436 73 1 0.053 8.412989892876013 8.946587747204491 12.725438349945737 0 0 1
8616 1431 3 -0.106 3.378427116290837 1.3021454658361924 16.368225401719236 1 1 0
9661 1604 3 -0.106 7.990602149237399 2.0068262315958076 10.152169388233135 1 1 0
5488 911 1 0.053 4.073325334846911 9.257716529448281 17.14417674389324 1 0 0
9684 1608 3 -0.106 1.6599212184592795 4.993867491307943 10.58591347777642 1 1 0
9677 1606 1 0.053 5.130970873794835 5.035215358682585 10.5621146227125 1 1 0
5502 914 3 -0.106 9.581289486946654 8.019958635140831 15.74768979995941 1 0 0
9669 1605 1 0.053 8.39770350543197 4.007194575764314 11.069768226910503 1 1 0
5506 914 1 0.053 11.249390115928595 7.121980842289541 16.963530146787736 1 0 0
420 70 1 0.053 3.1316165853505074 11.850647504103438 10.720628340673544 0 0 1
5537 919 1 0.053 7.610235043229904 11.551676474880567 8.456617572658871 1 0 0
443 74 1 0.053 9.428947028475994 8.291679878862698 8.938371162575681 0 0 1
5497 913 3 -0.106 8.604639819304147 8.477038127803096 16.893186468829082 1 0 0
8619 1431 1 0.053 3.9590407428143557 2.049953705451097 15.892829858757555 1 1 0
5852 972 3 -0.106 11.683048256795816 2.6220611389801776 11.602477409552737 0 0 1
5505 914 1 0.053 9.34044921471004 6.999229076723201 15.444079857481306 1 0 0
8631 1433 1 0.053 2.8061050569188266 0.9846300492025064 12.04145142588574 1 1 0
5490 912 3 -0.106 4.857722642501046 7.43150732355642 17.96982959182901 1 0 0
9676 1606 1 0.053 3.9892132447548536 3.8134291204553743 11.497667195199382 1 1 0
5504 914 1 0.053 9.373939427483856 8.628385060165003 14.86856303499026 1 0 0
3237 538 3 -0.106 7.261907745741654 4.4951535730612315 18.783135919231487 0 1 0
3248 540 3 -0.106 8.178762107079226 1.8965483502480147 16.04466452900422 0 1 0
9664 1604 1 0.053 8.844657759082637 1.5161901942472715 10.719307315170132 1 1 0
1381 230 3 -0.106 6.710046424012234 11.783270393200118 16.675386554980847 1 0 0
9674 1606 1 0.053 6.370180125310539 5.510346824416908 12.616459696314733 1 1 0
5530 918 1 0.053 9.524096341121602 11.593893258183348 10.23732740151077 1 0 0
8614 1430 1 0.053 1.6402638199498238 2.499617413944355 16.553134348805603 1 1 0
5501 913 1 0.053 8.962837870051777 8.235530756374361 17.932561977486706 1 0 0
9671 1605 1 0.053 5.891866613973513 2.5201755967809705 12.099606165652002 1 1 0
434 73 3 -0.106 8.197216041741047 9.083478031922013 11.652669774845327 0 0 1
9686 1608 1 0.053 1.2716132577672423 4.752030536047853 11.592175432235985 1 1 0
428 72 3 -0.106 6.90651066141299 11.28553919724701 12.107341503328593 0 0 1
5489 911 1 0.053 4.379568302224093 7.841762790578927 16.032108705948183 1 0 0
5496 913 3 -0.106 7.1591703465780405 7.935121948607665 16.741864016959155 1 0 0
1379 229 1 0.053 4.2538665871128725 11.770799567674603 15.262622432911364 1 0 0
423 71 3 -0.106 5.559637405009666 12.029896968858335 11.82528437226478 0 0 1
5520 917 3 -0.106 11.766252744333533 11.1873840501863 11.890764178638085 1 0 0
9681 1607 1 0.053 3.030774941629706 5.6307514061905515 12.86590576005725 1 1 0
5493 912 1 0.053 4.831140749158734 6.2993567299725814 17.724441076393994 1 0 0
5861 973 1 0.053 11.65602860089321 1.7949726678133453 14.132528497744879 0 0 1
5527 918 3 -0.106 10.15553844256466 12.09239147788802 9.487460788948567 1 0 0
5499 913 1 0.053 7.210895801675826 6.854386354129073 16.41563172735893 1 0 0
8620 1431 1 0.053 1.976066491041495 0.9480494406282901 14.845554266806275 1 1 0
5475 909 1 0.053 1.4968416976068457 10.181265614734965 12.972282471879362 1 0 0
9666 1605 3 -0.106 7.49437856237718 3.3762987212756577 10.845660735976315 1 1 0
1385 230 1 0.053 7.3785610435209295 11.61291600092352 17.525467061934627 1 0 0
1648 274 1 0.053 12.44260171872787 10.391778646485898 17.18420245388768 1 0 0
8618 1431 1 0.053 4.014422387514193 0.6712375282384807 17.00422834258871 1 1 0
7373 1224 1 0.053 4.2061971782717755 10.121736637453076 8.511550508063499 0 1 1
8610 1430 3 -0.106 2.7615932064688873 2.8141386689570798 18.40162852485501 1 1 0
426 71 1 0.053 4.726335471375242 11.44674060391452 12.300504428648994 0 0 1
3247 539 1 0.053 8.563416195220713 1.9376274341589028 18.087391287790403 0 1 0
438 73 1 0.053 8.057547911731922 6.808656749338493 11.342782486800637 0 0 1
3256 541 1 0.053 8.151728499916675 0.6414982245931782 13.750588083367035 0 1 0
5477 909 1 0.053 0.7791091150129312 7.7878434625663555 12.83487404665053 1 0 0
1380 230 3 -0.106 5.31829139815518 12.063579490897563 17.190113578384533 1 0 0
431 72 1 0.053 7.126949734862601 11.298748612431327 13.183738536037595 0 0 1
9672 1606 3 -0.106 5.811003000088489 4.544733766736738 12.483139419409754 1 1 0
5500 913 1 0.053 8.553248862702342 9.572916797060845 16.889000553070638 1 0 0
9665 1604 1 0.053 7.109756266448239 1.1371468415634312 10.145355053022383 1 1 0
5855 972 1 0.053 11.09977556569139 3.2260865511002472 10.848243173968505 0 0 1
9682 1607 1 0.053 3.2477611611421535 6.3210088183701245 9.790068752951283 1 1 0
5508 915 3 -0.106 11.950751914004547 7.4282882265120636 14.903254410637839 1 0 0
9679 1607 3 -0.106 2.678563653352412 6.159180591670842 10.748150759854424 1 1 0
433 72 1 0.053 6.396570326282363 9.955190813141432 10.528968052260321 0 0 1
9667 1605 3 -0.106 6.6679126074477395 3.3028340236596674 12.107369479044264 1 1 0
3250 540 1 0.053 9.023585780884716 2.53911600160485 15.730171665594085 0 1 0
8624 1432 1 0.053 4.426974010302364 0.9393693146367285 13.88308872531945 1 1 0
5853 972 3 -0.106 11.752969658987299 3.496438963384189 12.876603136346228 0 0 1
5854 972 1 0.053 11.096493587514892 1.6735525291200875 11.674606256498725 0 0 1
5495 912 1 0.053 6.89471746291527 7.509734844383696 18.89394823720622 1 0 0
9687 1608 1 0.053 2.102545199915613 4.064561572977411 10.377832677892748 1 1 0
8637 1434 1 0.053 1.3327331277529275 1.122841790714961 9.883930562286588 1 1 0
5509 915 3 -0.106 12.030729630864277 8.328166688740394 13.59255765689787 1 0 0
8615 1430 1 0.053 1.6375676140564341 1.1402218315294657 17.61537322515319 1 1 0
5868 974 1 0.053 11.496572355842142 3.753020480582773 18.22408529461145 0 0 1
5510 915 1 0.053 11.723284945562371 6.448143796684129 14.611615302340127 1 0 0
1390 231 1 0.053 8.786212004375741 11.980305736641563 14.612057546289687 1 0 0
5531 918 1 0.053 10.591136478812317 11.209204170014239 8.955320998338774 1 0 0
3240 538 1 0.053 7.399388599408224 5.550150877522954 18.68709409823773 0 1 0
444 74 1 0.053 8.718495415212363 5.847217913827585 8.91192524985222 0 0 1
3257 541 1 0.053 9.900230383288628 0.5508109832672718 14.144765049547988 0 1 0
8613 1430 1 0.053 3.52059779300913 3.490800823498256 18.059592832868024 1 1 0
5856 972 1 0.053 10.783058620311584 3.9444796361324093 13.075877857323889 0 0 1
5494 912 1 0.053 6.273250870678766 9.159314806029178 18.403136114996162 1 0 0
1376 229 1 0.053 2.4341007536502044 11.949641029132216 16.924686135512946 1 0 0
5472 909 3 -0.106 0.5620716613364592 9.950620929659316 13.451075077695776 1 0 0
5522 917 1 0.053 11.08278519253582 11.844241035577502 12.468935041339822 1 0 0
5517 916 1 0.053 11.86760170856946 10.234111135982607 14.529566284382256 1 0 0
9663 1604 1 0.053 9.312651658259858 2.9101730960562526 8.786683206998509 1 1 0
5859 973 3 -0.106 12.052787117157395 3.4312678823586378 15.47905649069929 0 0 1
8608 1429 1 0.053 0.970260267399796 4.059934698745845 18.35790472750373 1 1 0
3241 538 1 0.053 6.191449627164408 4.327927129842426 18.902481078323245 0 1 0
9660 1604 3 -0.106 8.524762611942446 2.145847685659337 8.729127925241151 1 1 0
1391 231 1 0.053 9.339873612239419 12.213948113425502 16.353988142034755 1 0 0
1651 274 1 0.053 10.795446080360602 10.595711340001865 18.927172652598635 1 0 0
7374 1224 1 0.053 1.6997758347902001 8.569410261887404 8.280911287578466 0 1 1
9154 1520 1 0.053 1.9982836565898472 9.900668323663389 27.013362317779702 1 0 0
3238 538 1 0.053 8.149083805280002 2.924224021057971 20.1681007149243 0 1 0
3234 537 1 0.053 6.6652773919348345 4.877719057392331 21.5029614828407 0 1 0
5933 985 1 0.053 1.3815022343619505 3.9548955915007524 25.26966130302848 0 0 0
8609 1429 1 0.053 0.9188164208720968 2.927761393533519 19.64748742011534 1 1 0
8607 1429 1 0.053 3.1124069987737646 4.178343543973085 20.468704908504918 1 1 0
3170 527 3 -0.106 5.173883274082175 1.1910574315779772 26.537179954627184 0 0 0
1659 276 3 -0.106 8.723288119328931 10.660330199710863 22.686795036416644 1 0 0
1679 279 1 0.053 2.150169051003223 9.205120433320362 21.235688790975274 1 0 0
3969 659 1 0.053 11.483938305907749 9.695791032427694 25.013514409391576 0 0 0
1662 276 1 0.053 8.74805620133212 11.472542733955446 23.406636468580363 1 0 0
3181 528 1 0.053 6.336636384374867 5.421879795134551 26.920189845632244 0 0 0
1676 279 3 -0.106 2.168487526465258 10.27888133096086 21.5814613455074 1 0 0
3230 537 3 -0.106 8.69702951657987 4.936319248353649 22.350873275755195 0 1 0
8598 1428 3 -0.106 0.851530838312764 3.617671186382199 22.108158014819605 1 1 0
1660 276 1 0.053 9.000027334395728 10.607144679032757 20.599666120406518 1 0 0
1680 279 1 0.053 1.9503195228530386 11.15566011350487 19.634797070919245 1 0 0
8601 1428 1 0.053 1.5224751035615856 2.814154953514273 21.868768661642235 1 1 0
5898 979 1 0.053 8.487106505263247 0.8821080155692418 28.306044405116047 0 0 0
1661 276 1 0.053 8.94338732268761 12.283154951511802 21.10702043552272 1 0 0
3229 536 1 0.053 8.392011522997226 7.074674709898804 22.898868173017544 0 1 0
8605 1429 3 -0.106 1.5814819980667423 3.5530098680925613 19.117995535685452 1 1 0
1666 277 1 0.053 6.933194325520574 9.812139642789882 23.65813040926064 1 0 0
1670 278 3 -0.106 4.731715822507468 10.344086323016 22.285394407260796 1 0 0
8600 1428 1 0.053 0.9836566673618888 3.913349172089734 23.185446017070138 1 1 0
3216 534 1 0.053 7.607234073652156 9.127768509350005 27.735106490509985 0 1 0
3233 537 1 0.053 9.72738431977717 5.060417238506695 22.011778574196548 0 1 0
5873 975 1 0.053 12.23401303366733 1.5008977638857628 19.26356295532535 0 0 1
3215 534 1 0.053 10.63428450982462 9.053000029423334 28.511003223327176 0 1 0
5899 979 1 0.053 9.528016233220507 1.6365759014789634 29.504016662198048 0 0 0
5871 975 3 -0.106 12.397296064595183 2.989147150357258 20.62496346762843 0 0 1
5892 978 1 0.053 9.980147938275339 1.2653970405293151 26.454560153562998 0 0 0
1663 276 1 0.053 9.408431913408863 9.831165858561475 23.07269259124394 1 0 0
1673 278 1 0.053 4.803271882117144 9.236199801692523 22.22246249329626 1 0 0
5934 985 1 0.053 1.1719438141546783 5.697366610712232 27.96215061174334 0 0 1
3176 528 3 -0.106 5.5147889309061116 3.514879947893956 27.609380820637515 0 0 0
5928 984 1 0.053 2.348558096084595 2.4874053107995815 27.112619975301165 0 0 1
1656 275 1 0.053 10.948519592011507 11.73757908461308 22.587905918696322 1 0 0
9147 1519 3 -0.106 3.6754053781933287 10.661948383504239 27.978822296332847 1 0 0
5931 985 3 -0.106 1.6306375976622605 5.336699245726438 26.98542361767618 0 0 1
3217 534 1 0.053 8.937938061894632 9.913529666949568 27.01775082409239 0 1 0
9152 1520 3 -0.106 2.2547215952923088 10.218059671452288 28.043491835764282 1 0 0
1647 274 3 -0.106 11.810845010643234 10.928161745725582 19.209984421129032 1 0 0
9155 1520 1 0.053 1.5714837488169418 11.011140936637776 28.27106816361717 1 0 0
1658 276 3 -0.106 9.339647509377617 11.290884079799932 21.375083616966066 1 0 0
3228 536 1 0.053 7.206659481282945 5.9204956713343995 23.51084131749023 0 1 0
3226 536 1 0.053 9.905473388471513 5.953489209140472 24.830217598454304 0 1 0
5918 983 3 -0.106 2.005437629682965 0.5485784736611926 29.192307830862926 0 0 0
3169 526 1 0.053 5.226770631843354 1.5536389944090108 24.393834311617365 0 0 0
1665 277 3 -0.106 6.186571801277117 10.97476930793116 22.016172097067084 1 0 0
1681 279 1 0.053 1.178209995380104 12.270221831038777 20.822678982258594 1 0 1
5880 976 1 0.053 12.301791697683827 3.65409673452377 23.270621417189062 0 0 1
1675 278 1 0.053 3.6231140174854284 11.987905361087034 21.49871778278934 1 0 0
3212 534 3 -0.106 9.537158589670279 9.119465097137898 28.884452861572022 0 1 0
3214 534 1 0.053 9.25200966195227 8.258171361211858 29.554465030656054 0 1 0
3975 660 1 0.053 11.265218123203606 11.948469268215899 24.67638917768348 0 0 0
3179 528 1 0.053 4.451937659843573 3.7739541616491676 27.41409329783225 0 0 0
3180 528 1 0.053 7.312555958463364 4.689513222465897 28.252008478771234 0 0 0
3173 527 1 0.053 4.416664739365955 1.1088847311989412 27.407821441272255 0 0 0
9146 1519 3 -0.106 3.989648212635962 11.855914568183312 27.07609368743557 1 0 0
220 37 1 0.053 11.63766675897399 4.2430348474884525 28.19254548386715 0 0 0
3220 535 1 0.053 10.286487706530457 7.700969986074508 26.865943181570874 0 1 0
3171 527 3 -0.106 6.142362201973106 2.4594671289500014 26.685387356188674 0 0 0